ITEM: TIMESTEP
90000
ITEM: NUMBER OF ATOMS
1800
ITEM: BOX BOUNDS pp pp pp
-4.9620439432261563e+00 4.3770059443224966e+01
6.2013933455227033e-01 2.0988516165448200e+01
2.1552946023722974e-01 2.1038204039762164e+01
ITEM: ATOMS id mol type q x y z ix iy iz
1 1 1 -0.091211 6.65869 7.06344 15.5664 0 -1 0
2 1 1 -0.050311 5.90197 8.20348 15.1486 0 -1 0
3 1 2 -0.174311 5.64264 9.21792 16.2302 0 -1 0
4 1 2 -0.174311 5.19386 10.4854 15.864 0 -1 0
5 1 1 -0.050311 4.93846 11.0282 14.4517 0 -1 0
6 1 1 -0.091211 3.55615 11.7366 14.5105 0 -1 0
7 1 3 0.033922 7.63548 7.45339 15.867 0 -1 0
8 1 3 0.033922 6.87682 6.40677 14.7192 0 -1 0
9 1 3 0.033922 6.22102 6.51318 16.4044 0 -1 0
10 1 3 0.046089 6.37146 8.65729 14.2709 0 -1 0
11 1 3 0.046089 4.93822 7.79449 14.8316 0 -1 0
12 1 4 0.121889 5.91595 9.0085 17.2595 0 -1 0
13 1 4 0.121889 5.08323 11.1376 16.7244 0 -1 0
14 1 3 0.046089 4.90029 10.2475 13.6865 0 -1 0
15 1 3 0.046089 5.62639 11.7851 14.064 0 -1 0
16 1 3 0.033922 3.16599 11.7977 13.4904 0 -1 0
17 1 3 0.033922 2.84052 11.2055 15.1448 0 -1 0
18 1 3 0.033922 3.70174 12.8024 14.7094 0 -1 0
19 2 1 -0.091211 5.13 4.9911 8.858 0 0 0
20 2 1 -0.050311 6.17772 3.86437 9.03002 0 0 0
21 2 2 -0.174311 5.50088 2.56035 9.25756 0 0 0
22 2 2 -0.174311 5.00242 2.05092 10.4063 0 0 0
23 2 1 -0.050311 5.02969 2.63998 11.816 0 0 0
24 2 1 -0.091211 3.6662 3.18801 12.2435 0 0 0
25 2 3 0.033922 4.5685 5.06222 9.79409 0 0 0
26 2 3 0.033922 4.32399 4.83305 8.13552 0 0 0
27 2 3 0.033922 5.60388 5.94199 8.59768 0 0 0
28 2 3 0.046089 6.79314 3.74408 8.13369 0 0 0
29 2 3 0.046089 6.80153 4.04884 9.90947 0 0 0
30 2 4 0.121889 5.45864 1.9855 8.33792 0 0 0
31 2 4 0.121889 4.5506 1.07438 10.2643 0 0 0
32 2 3 0.046089 5.80731 3.40732 11.8711 0 0 0
33 2 3 0.046089 5.25098 1.81555 12.5 0 0 0
34 2 3 0.033922 3.72005 3.59797 13.2562 0 0 0
35 2 3 0.033922 3.46183 3.96649 11.5027 0 0 0
36 2 3 0.033922 2.92367 2.39134 12.141 0 0 0
37 3 1 -0.091211 -2.01644 6.65004 14.7857 0 0 0
38 3 1 -0.050311 -0.788003 5.83494 15.2858 0 0 0
39 3 2 -0.174311 0.220291 5.76364 14.1828 0 0 0
40 3 2 -0.174311 1.56331 5.99368 14.2826 0 0 0
41 3 1 -0.050311 2.26783 6.47145 15.4747 0 0 0
42 3 1 -0.091211 3.2672 5.46451 15.9382 0 0 0
43 3 3 0.033922 -1.61498 7.4771 14.1929 0 0 0
44 3 3 0.033922 -2.70597 6.84935 15.6112 0 0 0
45 3 3 0.033922 -2.6466 6.05086 14.122 0 0 0
46 3 3 0.046089 -0.417242 6.20163 16.2474 0 0 0
47 3 3 0.046089 -1.10645 4.80602 15.4767 0 0 0
48 3 4 0.121889 -0.22609 5.51798 13.2244 0 0 0
49 3 4 0.121889 2.17927 5.85536 13.3997 0 0 0
50 3 3 0.046089 1.58771 6.73586 16.2896 0 0 0
51 3 3 0.046089 2.77947 7.38457 15.1569 0 0 0
52 3 3 0.033922 3.74308 5.75424 16.8796 0 0 0
53 3 3 0.033922 2.83099 4.46311 15.9968 0 0 0
54 3 3 0.033922 4.0515 5.33711 15.1864 0 0 0
55 4 1 -0.091211 -3.49492 17.8819 17.6125 0 -1 0
56 4 1 -0.050311 -2.53008 19.0143 17.4267 0 -1 0
57 4 2 -0.174311 -2.03091 19.0032 16.0347 0 -1 0
58 4 2 -0.174311 -0.920101 19.6993 15.6596 0 -1 0
59 4 1 -0.050311 0.052524 20.4484 16.5336 0 -1 0
60 4 1 -0.091211 1.20108 20.9501 15.6952 0 -1 0
61 4 3 0.033922 -4.1985 17.9081 16.7753 0 -1 0
62 4 3 0.033922 -4.00841 17.9751 18.5739 0 -1 0
63 4 3 0.033922 -2.94999 16.9336 17.5978 0 -1 0
64 4 3 0.046089 -2.98153 19.99 17.6284 0 -1 0
65 4 3 0.046089 -1.70414 18.9295 18.1389 0 -1 0
66 4 4 0.121889 -2.66927 18.5933 15.2586 0 -1 0
67 4 4 0.121889 -0.67042 19.6314 14.6055 0 -1 0
68 4 3 0.046089 0.339261 19.6733 17.2502 0 -1 0
69 4 3 0.046089 -0.334865 0.906634 17.1363 0 0 0
70 4 3 0.033922 0.802079 1.255 14.931 0 0 0
71 4 3 0.033922 2.01274 1.02528 16.2792 0 0 0
72 4 3 0.033922 1.55243 20.0903 15.1175 0 -1 0
73 5 1 -0.091211 -1.09197 9.18033 8.14008 0 0 0
74 5 1 -0.050311 -2.25243 9.78347 7.32689 0 0 0
75 5 2 -0.174311 -2.43712 11.2088 7.45746 0 0 0
76 5 2 -0.174311 -3.67045 11.7551 7.44205 0 0 0
77 5 1 -0.050311 43.6694 11.1272 7.49498 -1 0 0
78 5 1 -0.091211 42.6032 12.1801 7.25362 -1 0 0
79 5 3 0.033922 -0.125904 9.54696 7.7811 0 0 0
80 5 3 0.033922 -1.10278 8.0866 8.12827 0 0 0
81 5 3 0.033922 -1.19631 9.45885 9.19277 0 0 0
82 5 3 0.046089 -2.08953 9.52719 6.27598 0 0 0
83 5 3 0.046089 -3.17813 9.25621 7.57517 0 0 0
84 5 4 0.121889 -1.58838 11.8816 7.38677 0 0 0
85 5 4 0.121889 -3.6427 12.8397 7.41341 0 0 0
86 5 3 0.046089 43.5944 10.737 8.51415 -1 0 0
87 5 3 0.046089 43.5409 10.34 6.74637 -1 0 0
88 5 3 0.033922 42.8324 12.6502 6.29286 -1 0 0
89 5 3 0.033922 41.6886 11.5932 7.12897 -1 0 0
90 5 3 0.033922 42.522 12.9206 8.05469 -1 0 0
91 6 1 -0.091211 6.11147 5.02743 0.689036 0 0 1
92 6 1 -0.050311 5.94661 3.63606 1.31116 0 0 1
93 6 2 -0.174311 7.01288 2.66298 0.840316 0 0 1
94 6 2 -0.174311 7.9238 2.03057 1.64728 0 0 1
95 6 1 -0.050311 7.99717 2.15073 3.13415 0 0 1
96 6 1 -0.091211 9.31102 1.5934 3.62303 0 0 1
97 6 3 0.033922 5.54054 5.7582 1.26917 0 0 1
98 6 3 0.033922 5.78029 5.06982 20.47 0 0 0
99 6 3 0.033922 7.1658 5.2881 0.558632 0 0 1
100 6 3 0.046089 5.78286 3.69677 2.39103 0 0 1
101 6 3 0.046089 5.02907 3.26692 0.843784 0 0 1
102 6 4 0.121889 6.94959 2.44712 20.6012 0 0 0
103 6 4 0.121889 8.75052 1.49126 1.19601 0 0 1
104 6 3 0.046089 7.1446 1.63891 3.58994 0 0 1
105 6 3 0.046089 8.00498 3.20301 3.43274 0 0 1
106 6 3 0.033922 9.22146 1.50428 4.7096 0 0 1
107 6 3 0.033922 9.5826 20.9835 3.21596 0 -1 1
108 6 3 0.033922 10.0848 2.31823 3.35393 0 0 1
109 7 1 -0.091211 32.8013 3.06158 18.4049 -1 1 -1
110 7 1 -0.050311 32.1519 3.93685 17.3494 -1 1 -1
111 7 2 -0.174311 32.3993 3.36322 15.9897 -1 1 -1
112 7 2 -0.174311 32.0005 3.99477 14.8312 -1 1 -1
113 7 1 -0.050311 31.2159 5.27835 14.8303 -1 1 -1
114 7 1 -0.091211 30.6685 5.66669 13.4531 -1 1 -1
115 7 3 0.033922 33.8177 2.80607 18.0915 -1 1 -1
116 7 3 0.033922 32.2956 2.0932 18.3494 -1 1 -1
117 7 3 0.033922 32.6409 3.43894 19.419 -1 1 -1
118 7 3 0.046089 31.0768 3.93022 17.5508 -1 1 -1
119 7 3 0.046089 32.5134 4.96295 17.4631 -1 1 -1
120 7 4 0.121889 33.1166 2.55166 15.9206 -1 1 -1
121 7 4 0.121889 32.3992 3.70655 13.8637 -1 1 -1
122 7 3 0.046089 31.8379 6.1201 15.1484 -1 1 -1
123 7 3 0.046089 30.3571 5.22815 15.506 -1 1 -1
124 7 3 0.033922 30.3389 4.81225 12.8549 -1 1 -1
125 7 3 0.033922 29.7818 6.29948 13.552 -1 1 -1
126 7 3 0.033922 31.4319 6.20651 12.8853 -1 1 -1
127 8 1 -0.091211 -3.85842 10.1079 0.679019 0 0 1
128 8 1 -0.050311 -4.96423 9.96891 1.78099 0 0 1
129 8 2 -0.174311 43.5528 8.54386 2.13833 -1 0 1
130 8 2 -0.174311 42.6574 8.2423 3.18013 -1 0 1
131 8 1 -0.050311 41.8519 9.14619 4.13931 -1 0 1
132 8 1 -0.091211 40.5753 8.4153 4.59539 -1 0 1
133 8 3 0.033922 -4.08778 9.51206 20.6135 0 0 0
134 8 3 0.033922 -2.879 9.78173 1.04086 0 0 1
135 8 3 0.033922 -3.77932 11.1399 0.324972 0 0 1
136 8 3 0.046089 -4.654 10.4691 2.70304 0 0 1
137 8 3 0.046089 42.8466 10.4678 1.46648 -1 0 1
138 8 4 0.121889 -4.51019 7.84263 1.65001 0 0 1
139 8 4 0.121889 42.6431 7.16243 3.28767 -1 0 1
140 8 3 0.046089 41.6578 10.149 3.74782 -1 0 1
141 8 3 0.046089 42.4856 9.35413 5.00638 -1 0 1
142 8 3 0.033922 39.9789 9.0512 5.25605 -1 0 1
143 8 3 0.033922 39.9333 8.08661 3.77303 -1 0 1
144 8 3 0.033922 40.8312 7.51705 5.16482 -1 0 1
145 9 1 -0.091211 35.109 6.99803 19.7754 -1 1 0
146 9 1 -0.050311 35.0603 7.1116 0.465163 -1 1 1
147 9 2 -0.174311 34.8691 8.54606 0.937173 -1 1 1
148 9 2 -0.174311 35.1542 8.98499 2.20707 -1 1 1
149 9 1 -0.050311 35.7237 8.12242 3.34631 -1 1 1
150 9 1 -0.091211 35.2295 8.40525 4.7837 -1 1 1
151 9 3 0.033922 34.1324 7.13188 19.3012 -1 1 0
152 9 3 0.033922 35.3636 5.99236 19.4285 -1 1 0
153 9 3 0.033922 35.8306 7.73353 19.4082 -1 1 0
154 9 3 0.046089 34.2689 6.48585 0.887996 -1 1 1
155 9 3 0.046089 35.9626 6.85027 1.02563 -1 1 1
156 9 4 0.121889 34.4994 9.32352 0.276248 -1 1 1
157 9 4 0.121889 34.8615 9.99523 2.47473 -1 1 1
158 9 3 0.046089 36.8064 8.271 3.39549 -1 1 1
159 9 3 0.046089 35.5333 7.08581 3.05362 -1 1 1
160 9 3 0.033922 34.1569 8.20165 4.85247 -1 1 1
161 9 3 0.033922 35.687 7.76203 5.54104 -1 1 1
162 9 3 0.033922 35.4836 9.38529 5.1978 -1 1 1
163 10 1 -0.091211 7.70936 9.44784 7.01691 0 0 1
164 10 1 -0.050311 8.23981 8.10434 7.60085 0 0 1
165 10 2 -0.174311 9.50764 7.6087 6.96436 0 0 1
166 10 2 -0.174311 9.66354 6.86024 5.81365 0 0 1
167 10 1 -0.050311 8.46242 6.28031 5.14942 0 0 1
168 10 1 -0.091211 8.69097 6.12513 3.67575 0 0 1
169 10 3 0.033922 8.54 10.1374 6.84054 0 0 1
170 10 3 0.033922 6.98036 9.90888 7.68965 0 0 1
171 10 3 0.033922 7.27212 9.20501 6.04404 0 0 1
172 10 3 0.046089 8.46207 8.26867 8.65925 0 0 1
173 10 3 0.046089 7.41154 7.40675 7.44627 0 0 1
174 10 4 0.121889 10.4316 8.03657 7.34006 0 0 1
175 10 4 0.121889 10.6321 6.58763 5.40687 0 0 1
176 10 3 0.046089 7.58396 6.89461 5.36735 0 0 1
177 10 3 0.046089 8.35348 5.26335 5.53729 0 0 1
178 10 3 0.033922 8.81358 7.12018 3.23831 0 0 1
179 10 3 0.033922 9.4823 5.41483 3.41916 0 0 1
180 10 3 0.033922 7.77247 5.75257 3.21301 0 0 1
181 11 1 -0.091211 -1.12579 11.1104 16.8934 0 0 0
182 11 1 -0.050311 -0.952156 12.2213 18.0309 0 0 0
183 11 2 -0.174311 -0.899728 11.6676 19.5067 0 0 0
184 11 2 -0.174311 -0.941278 12.4416 20.6387 0 0 0
185 11 1 -0.050311 -1.10816 13.9747 20.695 0 0 0
186 11 1 -0.091211 -1.62423 14.3973 1.18341 0 0 1
187 11 3 0.033922 -1.23983 11.5599 15.9026 0 0 0
188 11 3 0.033922 -1.96877 10.4281 17.0358 0 0 0
189 11 3 0.033922 -0.223749 10.4922 16.9184 0 0 0
190 11 3 0.046089 -0.00429398 12.7484 17.8885 0 0 0
191 11 3 0.046089 -1.73668 12.9819 17.9804 0 0 0
192 11 4 0.121889 -0.989412 10.6013 19.6879 0 0 0
193 11 4 0.121889 -0.957802 11.9665 0.791754 0 0 1
194 11 3 0.046089 -1.77112 14.3225 19.8975 0 0 0
195 11 3 0.046089 -0.187121 14.5275 20.4885 0 0 0
196 11 3 0.033922 -2.54467 13.8215 1.31702 0 0 1
197 11 3 0.033922 -0.925791 14.0944 1.96895 0 0 1
198 11 3 0.033922 -1.7631 15.4817 1.21854 0 0 1
199 12 1 -0.091211 4.88038 8.48351 10.8152 0 0 0
200 12 1 -0.050311 3.70775 7.82168 11.6278 0 0 0
201 12 2 -0.174311 2.52979 7.58238 10.8499 0 0 0
202 12 2 -0.174311 1.42125 8.40403 10.7345 0 0 0
203 12 1 -0.050311 1.25862 9.78382 11.4135 0 0 0
204 12 1 -0.091211 0.348314 9.74479 12.6712 0 0 0
205 12 3 0.033922 5.78402 8.55513 11.4274 0 0 0
206 12 3 0.033922 4.62933 9.50269 10.5073 0 0 0
207 12 3 0.033922 5.11019 7.85774 9.94787 0 0 0
208 12 3 0.046089 4.00886 6.87404 12.0837 0 0 0
209 12 3 0.046089 3.43797 8.50146 12.4412 0 0 0
210 12 4 0.121889 2.42513 6.674 10.2652 0 0 0
211 12 4 0.121889 0.595297 8.11141 10.0941 0 0 0
212 12 3 0.046089 0.948622 10.5741 10.7237 0 0 0
213 12 3 0.046089 2.27402 10.03 11.7374 0 0 0
214 12 3 0.033922 -0.712574 9.66357 12.4173 0 0 0
215 12 3 0.033922 0.568986 8.8787 13.3019 0 0 0
216 12 3 0.033922 0.507036 10.6391 13.2807 0 0 0
217 13 1 -0.091211 -1.81572 15.5665 7.2876 0 0 1
218 13 1 -0.050311 -2.28594 15.9618 8.67476 0 0 1
219 13 2 -0.174311 -2.4572 14.7037 9.50852 0 0 1
220 13 2 -0.174311 -1.63116 14.1776 10.475 0 0 1
221 13 1 -0.050311 -0.201592 14.7636 10.6025 0 0 1
222 13 1 -0.091211 0.728863 13.6238 10.8959 0 0 1
223 13 3 0.033922 -1.79511 16.4994 6.71677 0 0 1
224 13 3 0.033922 -2.47181 14.9049 6.71464 0 0 1
225 13 3 0.033922 -0.834727 15.0853 7.23605 0 0 1
226 13 3 0.046089 -1.53994 16.5927 9.16666 0 0 1
227 13 3 0.046089 -3.16018 16.6162 8.61086 0 0 1
228 13 4 0.121889 -3.42004 14.2287 9.34956 0 0 1
229 13 4 0.121889 -1.98825 13.3932 11.1346 0 0 1
230 13 3 0.046089 -0.127339 15.5635 11.3449 0 0 1
231 13 3 0.046089 0.0539663 15.2523 9.65773 0 0 1
232 13 3 0.033922 0.654291 12.8547 10.1216 0 0 1
233 13 3 0.033922 1.73348 14.0561 10.8752 0 0 1
234 13 3 0.033922 0.612674 13.1097 11.8544 0 0 1
235 14 1 -0.091211 13.7373 8.76831 6.49211 0 0 0
236 14 1 -0.050311 14.2757 8.09346 5.21865 0 0 0
237 14 2 -0.174311 13.1336 7.71188 4.32818 0 0 0
238 14 2 -0.174311 13.2822 6.69247 3.27659 0 0 0
239 14 1 -0.050311 14.6836 5.99163 3.02454 0 0 0
240 14 1 -0.091211 14.7063 4.59353 3.54855 0 0 0
241 14 3 0.033922 13.1514 8.04617 7.06812 0 0 0
242 14 3 0.033922 13.0221 9.5692 6.28333 0 0 0
243 14 3 0.033922 14.5263 9.14253 7.15096 0 0 0
244 14 3 0.046089 15.0226 8.73365 4.7403 0 0 0
245 14 3 0.046089 14.8675 7.22402 5.51928 0 0 0
246 14 4 0.121889 12.1766 8.19317 4.50243 0 0 0
247 14 4 0.121889 12.401 6.52648 2.66509 0 0 0
248 14 3 0.046089 15.508 6.52362 3.50803 0 0 0
249 14 3 0.046089 14.7969 5.99387 1.93652 0 0 0
250 14 3 0.033922 14.3048 4.70019 4.56051 0 0 0
251 14 3 0.033922 14.0937 4.00677 2.85789 0 0 0
252 14 3 0.033922 15.706 4.14999 3.52957 0 0 0
253 15 1 -0.091211 2.26451 2.81941 2.81957 0 1 1
254 15 1 -0.050311 2.29024 3.94046 1.8058 0 1 1
255 15 2 -0.174311 1.05661 4.80506 2.05763 0 1 1
256 15 2 -0.174311 0.902257 5.97193 1.28865 0 1 1
257 15 1 -0.050311 1.99554 6.51405 0.382199 0 1 1
258 15 1 -0.091211 1.3267 7.13644 19.9922 0 1 0
259 15 3 0.033922 2.40464 3.19627 3.83689 0 1 1
260 15 3 0.033922 2.89612 1.94785 2.62469 0 1 1
261 15 3 0.033922 1.24319 2.42766 2.81677 0 1 1
262 15 3 0.046089 3.24733 4.46993 1.81993 0 1 1
263 15 3 0.046089 2.22938 3.47458 0.817951 0 1 1
264 15 4 0.121889 0.341551 4.52032 2.82287 0 1 1
265 15 4 0.121889 0.0064429 6.55331 1.48221 0 1 1
266 15 3 0.046089 2.74585 5.80847 20.8365 0 1 0
267 15 3 0.046089 2.58287 7.34118 0.791403 0 1 1
268 15 3 0.033922 0.774377 6.43758 19.3573 0 1 0
269 15 3 0.033922 0.711054 7.9782 20.3223 0 1 0
270 15 3 0.033922 2.10644 7.60054 19.3813 0 1 0
271 16 1 -0.091211 12.5662 4.52839 7.00494 0 1 0
272 16 1 -0.050311 13.1038 3.61616 8.07958 0 1 0
273 16 2 -0.174311 13.3819 2.20789 7.56441 0 1 0
274 16 2 -0.174311 13.0399 1.03053 8.21769 0 1 0
275 16 1 -0.050311 12.3357 1.0043 9.62459 0 1 0
276 16 1 -0.091211 12.8052 20.0737 10.3448 0 0 0
277 16 3 0.033922 11.5058 4.75914 7.14209 0 1 0
278 16 3 0.033922 12.5925 4.06931 6.01239 0 1 0
279 16 3 0.033922 13.2339 5.38747 7.11755 0 1 0
280 16 3 0.046089 14.0407 3.966 8.52282 0 1 0
281 16 3 0.046089 12.3295 3.63609 8.85205 0 1 0
282 16 4 0.121889 13.6776 2.15488 6.52144 0 1 0
283 16 4 0.121889 13.0326 20.4484 7.6939 0 0 0
284 16 3 0.046089 11.2552 0.913834 9.48014 0 1 0
285 16 3 0.046089 12.4835 1.96446 10.1274 0 1 0
286 16 3 0.033922 12.3218 19.2189 9.86285 0 0 0
287 16 3 0.033922 13.8752 19.9704 10.1427 0 0 0
288 16 3 0.033922 12.5973 20.1551 11.4157 0 0 0
289 17 1 -0.091211 8.03262 13.6903 9.53977 0 0 0
290 17 1 -0.050311 8.84578 12.4506 9.70187 0 0 0
291 17 2 -0.174311 9.93121 12.6924 10.6438 0 0 0
292 17 2 -0.174311 10.7881 11.739 11.1435 0 0 0
293 17 1 -0.050311 10.56 10.2504 10.801 0 0 0
294 17 1 -0.091211 11.4572 9.83981 9.69812 0 0 0
295 17 3 0.033922 7.1342 13.4443 8.96628 0 0 0
296 17 3 0.033922 8.57101 14.3718 8.87468 0 0 0
297 17 3 0.033922 7.70361 14.1702 10.4661 0 0 0
298 17 3 0.046089 8.15452 11.6778 10.0504 0 0 0
299 17 3 0.046089 9.23776 12.1576 8.72356 0 0 0
300 17 4 0.121889 10.0461 13.7031 11.0223 0 0 0
301 17 4 0.121889 11.6412 11.9389 11.7839 0 0 0
302 17 3 0.046089 9.54784 10.0232 10.4539 0 0 0
303 17 3 0.046089 10.7435 9.67602 11.7137 0 0 0
304 17 3 0.033922 11.2532 10.4452 8.81015 0 0 0
305 17 3 0.033922 12.5075 9.83099 10.0037 0 0 0
306 17 3 0.033922 11.1909 8.79984 9.48825 0 0 0
307 18 1 -0.091211 35.1504 6.59313 15.8419 -1 0 1
308 18 1 -0.050311 35.0383 7.36641 14.5499 -1 0 1
309 18 2 -0.174311 36.4789 7.58051 14.1165 -1 0 1
310 18 2 -0.174311 37.2034 6.78687 13.3089 -1 0 1
311 18 1 -0.050311 36.6725 5.53616 12.7943 -1 0 1
312 18 1 -0.091211 37.4888 5.02834 11.5794 -1 0 1
313 18 3 0.033922 34.1601 6.27282 16.1785 -1 0 1
314 18 3 0.033922 35.5966 7.28341 16.5637 -1 0 1
315 18 3 0.033922 35.8037 5.73283 15.6698 -1 0 1
316 18 3 0.046089 34.4441 6.82485 13.8081 -1 0 1
317 18 3 0.046089 34.5207 8.32992 14.5672 -1 0 1
318 18 4 0.121889 37.0292 8.39625 14.5744 -1 0 1
319 18 4 0.121889 38.2768 6.91627 13.2142 -1 0 1
320 18 3 0.046089 35.683 5.66756 12.3469 -1 0 1
321 18 3 0.046089 36.5863 4.79236 13.5918 -1 0 1
322 18 3 0.033922 37.5731 5.80221 10.8109 -1 0 1
323 18 3 0.033922 38.5256 4.75006 11.7898 -1 0 1
324 18 3 0.033922 36.9943 4.13737 11.1816 -1 0 1
325 19 1 -0.091211 6.71275 10.4659 20.6331 0 0 -1
326 19 1 -0.050311 7.66339 10.7983 19.4674 0 0 -1
327 19 2 -0.174311 8.37565 9.64729 18.8256 0 0 -1
328 19 2 -0.174311 9.32197 9.7973 17.8746 0 0 -1
329 19 1 -0.050311 9.93705 11.1708 17.6235 0 0 -1
330 19 1 -0.091211 10.9698 11.6916 18.5507 0 0 -1
331 19 3 0.033922 6.22671 11.4094 20.8978 0 0 -1
332 19 3 0.033922 7.29738 10.1785 0.689112 0 0 0
333 19 3 0.033922 5.90351 9.76408 20.4115 0 0 -1
334 19 3 0.046089 7.09767 11.2253 18.6342 0 0 -1
335 19 3 0.046089 8.30841 11.6058 19.8259 0 0 -1
336 19 4 0.121889 7.95313 8.68866 19.1092 0 0 -1
337 19 4 0.121889 9.65669 8.92931 17.3156 0 0 -1
338 19 3 0.046089 9.11659 11.8931 17.5816 0 0 -1
339 19 3 0.046089 10.4281 11.2132 16.6469 0 0 -1
340 19 3 0.033922 11.7932 10.9721 18.5818 0 0 -1
341 19 3 0.033922 11.4 12.6351 18.2026 0 0 -1
342 19 3 0.033922 10.5281 11.878 19.5339 0 0 -1
343 20 1 -0.091211 13.597 18.1399 6.11413 0 -1 0
344 20 1 -0.050311 14.266 19.0084 5.07254 0 -1 0
345 20 2 -0.174311 13.703 19.0722 3.65117 0 -1 0
346 20 2 -0.174311 14.5379 19.5038 2.6071 0 -1 0
347 20 1 -0.050311 15.9672 19.8709 2.67687 0 -1 0
348 20 1 -0.091211 16.2937 0.818777 3.31508 0 0 0
349 20 3 0.033922 13.6279 17.1018 5.77075 0 -1 0
350 20 3 0.033922 12.5782 18.4291 6.38819 0 -1 0
351 20 3 0.033922 14.134 18.1946 7.06556 0 -1 0
352 20 3 0.046089 14.3616 20.0223 5.47166 0 -1 0
353 20 3 0.046089 15.2609 18.5562 5.02454 0 -1 0
354 20 4 0.121889 12.6958 18.7786 3.37336 0 -1 0
355 20 4 0.121889 14.087 19.6117 1.62576 0 -1 0
356 20 3 0.046089 16.22 19.8953 1.61286 0 -1 0
357 20 3 0.046089 16.5342 19.0866 3.18673 0 -1 0
358 20 3 0.033922 15.6673 1.62341 2.91912 0 0 0
359 20 3 0.033922 16.2168 0.858732 4.40555 0 0 0
360 20 3 0.033922 17.2934 1.17402 3.04878 0 0 0
361 21 1 -0.091211 43.7491 1.66526 1.57989 -1 0 1
362 21 1 -0.050311 -4.27894 2.19323 2.79256 0 0 1
363 21 2 -0.174311 -2.99049 2.75437 2.20526 0 0 1
364 21 2 -0.174311 -1.71214 2.33194 2.63616 0 0 1
365 21 1 -0.050311 -1.42518 1.55384 3.90277 0 0 1
366 21 1 -0.091211 -1.45521 20.4632 3.71559 0 -1 1
367 21 3 0.033922 43.6317 2.47996 0.859444 -1 0 1
368 21 3 0.033922 42.7549 1.36204 1.92085 -1 0 1
369 21 3 0.033922 -4.40032 0.866009 1.11275 0 0 1
370 21 3 0.046089 -4.82722 3.01279 3.2661 0 0 1
371 21 3 0.046089 -4.22508 1.42563 3.57002 0 0 1
372 21 4 0.121889 -2.98831 3.32273 1.28063 0 0 1
373 21 4 0.121889 -0.870652 2.67078 2.04029 0 0 1
374 21 3 0.046089 -2.15677 1.80103 4.67754 0 0 1
375 21 3 0.046089 -0.43473 1.91211 4.1981 0 0 1
376 21 3 0.033922 -0.734613 20.217 2.93029 0 -1 1
377 21 3 0.033922 -1.17843 19.9051 4.61473 0 -1 1
378 21 3 0.033922 -2.44926 20.0525 3.51625 0 -1 1
379 22 1 -0.091211 9.46232 14.9436 18.995 0 -1 0
380 22 1 -0.050311 8.43596 15.8616 18.3604 0 -1 0
381 22 2 -0.174311 9.01264 16.1214 16.9722 0 -1 0
382 22 2 -0.174311 8.69494 15.3871 15.859 0 -1 0
383 22 1 -0.050311 7.73241 14.2015 15.7997 0 -1 0
384 22 1 -0.091211 7.94517 13.3901 14.4963 0 -1 0
385 22 3 0.033922 9.00477 14.4863 19.8772 0 -1 0
386 22 3 0.033922 10.2846 15.5298 19.4155 0 -1 0
387 22 3 0.033922 9.80601 14.2694 18.2051 0 -1 0
388 22 3 0.046089 7.44825 15.4163 18.2098 0 -1 0
389 22 3 0.046089 8.26689 16.7286 19.0056 0 -1 0
390 22 4 0.121889 9.65804 16.9933 16.9389 0 -1 0
391 22 4 0.121889 9.19498 15.6269 14.926 0 -1 0
392 22 3 0.046089 6.71318 14.5603 15.9699 0 -1 0
393 22 3 0.046089 7.9836 13.5333 16.6286 0 -1 0
394 22 3 0.033922 9.011 13.2224 14.3161 0 -1 0
395 22 3 0.033922 7.57593 12.3628 14.5663 0 -1 0
396 22 3 0.033922 7.56055 13.9731 13.6544 0 -1 0
397 23 1 -0.091211 2.89595 14.2161 2.81608 0 0 0
398 23 1 -0.050311 2.39505 13.1154 3.73801 0 0 0
399 23 2 -0.174311 1.0029 13.4414 4.18959 0 0 0
400 23 2 -0.174311 -0.0600154 12.4794 4.22193 0 0 0
401 23 1 -0.050311 -0.0286797 11.0102 3.77299 0 0 0
402 23 1 -0.091211 -1.46462 10.6155 3.42568 0 0 0
403 23 3 0.033922 2.81493 15.1832 3.32083 0 0 0
404 23 3 0.033922 2.1876 14.2524 1.9833 0 0 0
405 23 3 0.033922 3.89001 14.0399 2.39494 0 0 0
406 23 3 0.046089 2.44203 12.1221 3.28234 0 0 0
407 23 3 0.046089 3.06862 13.0358 4.59625 0 0 0
408 23 4 0.121889 0.798433 14.4283 4.59219 0 0 0
409 23 4 0.121889 -1.03245 12.8431 4.53823 0 0 0
410 23 3 0.046089 0.311975 10.415 4.62526 0 0 0
411 23 3 0.046089 0.739738 10.931 2.99849 0 0 0
412 23 3 0.033922 -1.53445 9.62365 2.96979 0 0 0
413 23 3 0.033922 -2.17487 10.6206 4.25762 0 0 0
414 23 3 0.033922 -1.73071 11.3378 2.64849 0 0 0
415 24 1 -0.091211 1.39526 17.7659 3.36313 0 0 0
416 24 1 -0.050311 2.83251 18.1963 3.49344 0 0 0
417 24 2 -0.174311 3.71171 18.0289 2.36523 0 0 0
418 24 2 -0.174311 5.08929 17.8722 2.35789 0 0 0
419 24 1 -0.050311 5.98249 17.8178 3.50488 0 0 0
420 24 1 -0.091211 7.15846 18.7636 3.35031 0 0 0
421 24 3 0.033922 1.02318 18.0879 2.38614 0 0 0
422 24 3 0.033922 0.770314 18.1687 4.16548 0 0 0
423 24 3 0.033922 1.36748 16.6726 3.38557 0 0 0
424 24 3 0.046089 2.77988 19.2369 3.82637 0 0 0
425 24 3 0.046089 3.25867 17.6423 4.33489 0 0 0
426 24 4 0.121889 3.31049 18.0789 1.35799 0 0 0
427 24 4 0.121889 5.5175 17.855 1.36072 0 0 0
428 24 3 0.046089 6.32745 16.7886 3.64043 0 0 0
429 24 3 0.046089 5.397 18.2274 4.33314 0 0 0
430 24 3 0.033922 7.83097 18.3716 2.58174 0 0 0
431 24 3 0.033922 6.91418 19.7892 3.05872 0 0 0
432 24 3 0.033922 7.57822 18.806 4.35958 0 0 0
433 25 1 -0.091211 0.0204261 3.75928 18.2717 0 0 0
434 25 1 -0.050311 -0.34509 3.44739 19.6281 0 0 0
435 25 2 -0.174311 -1.2634 2.20959 19.5219 0 0 0
436 25 2 -0.174311 -1.06946 0.950649 19.9432 0 0 0
437 25 1 -0.050311 0.0677142 20.9006 20.8301 0 -1 0
438 25 1 -0.091211 0.0917209 19.4518 20.6346 0 -1 0
439 25 3 0.033922 0.478736 2.94037 17.7097 0 0 0
440 25 3 0.033922 0.623748 4.66819 18.1915 0 0 0
441 25 3 0.033922 -0.846805 4.02647 17.6609 0 0 0
442 25 3 0.046089 0.549446 3.09324 20.1487 0 0 0
443 25 3 0.046089 -0.716313 4.26466 20.2533 0 0 0
444 25 4 0.121889 -2.13656 2.31352 18.8857 0 0 0
445 25 4 0.121889 -1.86884 20.632 19.6846 0 -1 0
446 25 3 0.046089 -0.237241 0.82841 1.01533 0 0 1
447 25 3 0.046089 0.959179 1.1023 20.553 0 0 0
448 25 3 0.033922 0.0122004 19.1564 19.5844 0 -1 0
449 25 3 0.033922 0.991861 18.9751 0.210893 0 -1 1
450 25 3 0.033922 -0.701501 19.1491 0.50172 0 -1 1
451 26 1 -0.091211 -3.73722 14.4119 3.95858 0 -1 1
452 26 1 -0.050311 43.7527 14.7632 3.26045 -1 -1 1
453 26 2 -0.174311 42.7027 13.7037 3.46679 -1 -1 1
454 26 2 -0.174311 41.3496 13.9551 3.30446 -1 -1 1
455 26 1 -0.050311 40.8271 15.277 2.99308 -1 -1 1
456 26 1 -0.091211 39.4435 15.4479 3.5543 -1 -1 1
457 26 3 0.033922 -2.97701 15.1939 3.87395 0 -1 1
458 26 3 0.033922 -3.27647 13.536 3.49271 0 -1 1
459 26 3 0.033922 -3.87076 14.1524 5.01282 0 -1 1
460 26 3 0.046089 43.4569 15.7482 3.6332 -1 -1 1
461 26 3 0.046089 -4.84424 14.8068 2.17581 0 -1 1
462 26 4 0.121889 43.0591 12.7184 3.74984 -1 -1 1
463 26 4 0.121889 40.594 13.1784 3.3655 -1 -1 1
464 26 3 0.046089 40.6449 15.4746 1.93272 -1 -1 1
465 26 3 0.046089 41.4955 16.0559 3.37131 -1 -1 1
466 26 3 0.033922 39.0498 16.4176 3.2362 -1 -1 1
467 26 3 0.033922 38.7168 14.7433 3.13948 -1 -1 1
468 26 3 0.033922 39.4641 15.461 4.64793 -1 -1 1
469 27 1 -0.091211 17.0332 17.2508 16.7262 0 0 -1
470 27 1 -0.050311 17.3154 16.4944 18.0146 0 0 -1
471 27 2 -0.174311 16.2407 15.4712 18.3651 0 0 -1
472 27 2 -0.174311 16.2918 14.7934 19.4863 0 0 -1
473 27 1 -0.050311 17.5076 14.8155 20.4839 0 0 -1
474 27 1 -0.091211 18.052 13.4134 20.429 0 0 -1
475 27 3 0.033922 17.7798 17.9713 16.3798 0 0 -1
476 27 3 0.033922 16.1106 17.8371 16.7668 0 0 -1
477 27 3 0.033922 16.9459 16.4661 15.9692 0 0 -1
478 27 3 0.046089 18.2929 16.0042 17.9863 0 0 -1
479 27 3 0.046089 17.3095 17.2001 18.8504 0 0 -1
480 27 4 0.121889 15.4652 15.2575 17.6365 0 0 -1
481 27 4 0.121889 15.4653 14.1527 19.7769 0 0 -1
482 27 3 0.046089 17.2119 15.2002 0.641668 0 0 0
483 27 3 0.046089 18.3185 15.4839 20.1804 0 0 -1
484 27 3 0.033922 17.9652 13.0626 19.3965 0 0 -1
485 27 3 0.033922 19.068 13.3323 20.8261 0 0 -1
486 27 3 0.033922 17.4689 12.7548 0.256543 0 0 0
487 28 1 -0.091211 10.6253 19.7412 0.468365 0 -1 0
488 28 1 -0.050311 10.7482 20.3811 19.9786 0 -1 -1
489 28 2 -0.174311 12.2222 20.461 19.6302 0 -1 -1
490 28 2 -0.174311 13.0946 19.4805 19.2114 0 -1 -1
491 28 1 -0.050311 12.8116 18.0034 18.9944 0 -1 -1
492 28 1 -0.091211 13.358 17.1066 20.1118 0 -1 -1
493 28 3 0.033922 9.57704 19.4536 0.590396 0 -1 0
494 28 3 0.033922 10.8764 20.5051 1.21002 0 -1 0
495 28 3 0.033922 11.2368 18.8518 0.646277 0 -1 0
496 28 3 0.046089 10.2953 19.7738 19.1895 0 -1 -1
497 28 3 0.046089 10.274 0.995563 20.0532 0 0 -1
498 28 4 0.121889 12.6572 1.0849 19.5666 0 0 -1
499 28 4 0.121889 14.1386 19.6976 19.0091 0 -1 -1
500 28 3 0.046089 13.2144 17.7254 18.0161 0 -1 -1
501 28 3 0.046089 11.737 17.8169 19.0775 0 -1 -1
502 28 3 0.033922 13.3186 16.0424 19.862 0 -1 -1
503 28 3 0.033922 14.4233 17.3096 20.2548 0 -1 -1
504 28 3 0.033922 12.8367 17.2706 0.236717 0 -1 0
505 29 1 -0.091211 4.9766 8.70871 2.91655 0 0 0
506 29 1 -0.050311 3.74912 8.11334 3.66443 0 0 0
507 29 2 -0.174311 4.06196 7.8559 5.14734 0 0 0
508 29 2 -0.174311 3.38081 6.96213 5.87089 0 0 0
509 29 1 -0.050311 2.13903 6.18494 5.49991 0 0 0
510 29 1 -0.091211 1.06824 6.35157 6.59225 0 0 0
511 29 3 0.033922 5.78545 8.00044 3.1182 0 0 0
512 29 3 0.033922 5.18392 9.73267 3.24064 0 0 0
513 29 3 0.033922 4.89529 8.63969 1.82786 0 0 0
514 29 3 0.046089 2.93534 8.84415 3.67959 0 0 0
515 29 3 0.046089 3.42348 7.18508 3.18608 0 0 0
516 29 4 0.121889 4.98083 8.24534 5.57393 0 0 0
517 29 4 0.121889 3.90828 6.88533 6.81634 0 0 0
518 29 3 0.046089 2.52159 5.16414 5.40969 0 0 0
519 29 3 0.046089 1.6866 6.46845 4.54517 0 0 0
520 29 3 0.033922 1.45507 6.56474 7.59302 0 0 0
521 29 3 0.033922 0.460625 7.23887 6.39216 0 0 0
522 29 3 0.033922 0.41938 5.47216 6.5459 0 0 0
523 30 1 -0.091211 -0.181074 19.06 10.5319 0 0 1
524 30 1 -0.050311 1.02303 19.3708 9.62996 0 0 1
525 30 2 -0.174311 0.553396 19.4307 8.20808 0 0 1
526 30 2 -0.174311 0.809832 20.4395 7.27179 0 0 1
527 30 1 -0.050311 1.69197 1.25339 7.50594 0 1 1
528 30 1 -0.091211 1.70584 2.15508 6.2877 0 1 1
529 30 3 0.033922 -0.365022 17.982 10.5066 0 0 1
530 30 3 0.033922 -1.0305 19.641 10.1611 0 0 1
531 30 3 0.033922 0.0818423 19.3622 11.5499 0 0 1
532 30 3 0.046089 1.4456 20.3551 9.85172 0 0 1
533 30 3 0.046089 1.80029 18.6104 9.74884 0 0 1
534 30 4 0.121889 -0.229208 18.6973 8.0419 0 0 1
535 30 4 0.121889 0.34916 20.3062 6.29813 0 0 1
536 30 3 0.046089 2.72026 0.939156 7.70709 0 1 1
537 30 3 0.046089 1.29051 1.82985 8.34446 0 1 1
538 30 3 0.033922 2.34047 2.9991 6.57303 0 1 1
539 30 3 0.033922 2.10256 1.76074 5.34764 0 1 1
540 30 3 0.033922 0.667644 2.4601 6.12741 0 1 1
541 31 1 -0.091211 22.6824 20.8154 20.4781 0 0 0
542 31 1 -0.050311 22.3223 19.34 20.7485 0 0 0
543 31 2 -0.174311 21.6157 18.7435 19.5672 0 0 0
544 31 2 -0.174311 21.3644 17.3907 19.3332 0 0 0
545 31 1 -0.050311 21.403 16.2446 20.2876 0 0 0
546 31 1 -0.091211 21.4573 14.9756 19.5249 0 0 0
547 31 3 0.033922 23.3599 0.80817 0.434686 0 1 1
548 31 3 0.033922 21.8642 1.17291 20.4927 0 1 0
549 31 3 0.033922 23.229 20.9197 19.5363 0 0 0
550 31 3 0.046089 23.1752 18.6875 20.9567 0 0 0
551 31 3 0.046089 21.651 19.4271 0.785056 0 0 1
552 31 4 0.121889 21.281 19.4432 18.8081 0 0 0
553 31 4 0.121889 20.958 17.1573 18.3542 0 0 0
554 31 3 0.046089 20.5499 16.3283 20.9673 0 0 0
555 31 3 0.046089 22.3176 16.3676 20.8749 0 0 0
556 31 3 0.033922 20.6204 15.0559 18.8251 0 0 0
557 31 3 0.033922 22.3151 14.8881 18.8517 0 0 0
558 31 3 0.033922 21.3839 14.0354 20.0791 0 0 0
559 32 1 -0.091211 17.2079 1.1133 19.7601 0 1 -1
560 32 1 -0.050311 16.0148 1.98129 19.2437 0 1 -1
561 32 2 -0.174311 16.4617 3.33768 18.7185 0 1 -1
562 32 2 -0.174311 15.8399 4.06676 17.7524 0 1 -1
563 32 1 -0.050311 14.4574 3.75035 17.258 0 1 -1
564 32 1 -0.091211 13.702 5.02129 16.846 0 1 -1
565 32 3 0.033922 16.7709 20.5274 20.0682 0 0 -1
566 32 3 0.033922 17.6027 1.67801 20.6097 0 1 -1
567 32 3 0.033922 17.9288 0.903156 18.9646 0 1 -1
568 32 3 0.046089 15.5094 1.43045 18.4451 0 1 -1
569 32 3 0.046089 15.265 2.14673 20.0228 0 1 -1
570 32 4 0.121889 17.3554 3.84219 19.0718 0 1 -1
571 32 4 0.121889 16.2531 5.0453 17.5296 0 1 -1
572 32 3 0.046089 13.8493 3.17186 17.9595 0 1 -1
573 32 3 0.046089 14.6194 3.18614 16.335 0 1 -1
574 32 3 0.033922 12.7467 4.72117 16.4057 0 1 -1
575 32 3 0.033922 13.5071 5.62049 17.7402 0 1 -1
576 32 3 0.033922 14.2279 5.55427 16.0486 0 1 -1
577 33 1 -0.091211 15.0337 12.4973 8.50535 0 0 0
578 33 1 -0.050311 15.2465 11.8083 9.78584 0 0 0
579 33 2 -0.174311 16.5651 12.183 10.3932 0 0 0
580 33 2 -0.174311 17.3901 11.2625 11.0865 0 0 0
581 33 1 -0.050311 17.0528 9.80896 11.2476 0 0 0
582 33 1 -0.091211 17.611 9.25024 12.5365 0 0 0
583 33 3 0.033922 15.8374 12.2502 7.80557 0 0 0
584 33 3 0.033922 15.0305 13.5757 8.68869 0 0 0
585 33 3 0.033922 14.0992 12.1562 8.05058 0 0 0
586 33 3 0.046089 14.428 12.0478 10.4708 0 0 0
587 33 3 0.046089 15.2918 10.7398 9.55609 0 0 0
588 33 4 0.121889 16.8257 13.236 10.4255 0 0 0
589 33 4 0.121889 18.3076 11.5785 11.5725 0 0 0
590 33 3 0.046089 17.4335 9.20708 10.4173 0 0 0
591 33 3 0.046089 15.9672 9.67444 11.2479 0 0 0
592 33 3 0.033922 17.4021 9.90981 13.3838 0 0 0
593 33 3 0.033922 17.239 8.23265 12.687 0 0 0
594 33 3 0.033922 18.7032 9.19116 12.5327 0 0 0
595 34 1 -0.091211 11.2074 15.7159 8.97167 0 0 0
596 34 1 -0.050311 12.7308 15.7618 9.18798 0 0 0
597 34 2 -0.174311 13.1969 15.0854 10.4511 0 0 0
598 34 2 -0.174311 14.3051 15.4873 11.1001 0 0 0
599 34 1 -0.050311 15.3003 16.4676 10.6682 0 0 0
600 34 1 -0.091211 15.1984 17.6799 11.5342 0 0 0
601 34 3 0.033922 10.6624 16.0659 9.85321 0 0 0
602 34 3 0.033922 10.7708 14.8106 8.54012 0 0 0
603 34 3 0.033922 11.0215 16.431 8.16504 0 0 0
604 34 3 0.046089 13.2581 15.3891 8.30504 0 0 0
605 34 3 0.046089 12.9682 16.8232 9.30435 0 0 0
606 34 4 0.121889 12.5551 14.2653 10.7566 0 0 0
607 34 4 0.121889 14.4455 15.1465 12.121 0 0 0
608 34 3 0.046089 15.223 16.7688 9.61942 0 0 0
609 34 3 0.046089 16.3141 16.0697 10.7698 0 0 0
610 34 3 0.033922 14.1588 18.0039 11.6381 0 0 0
611 34 3 0.033922 15.5054 17.4331 12.5547 0 0 0
612 34 3 0.033922 15.7449 18.5041 11.0668 0 0 0
613 35 1 -0.091211 38.2796 15.7576 20.003 -1 0 0
614 35 1 -0.050311 37.6872 14.4836 19.3743 -1 0 0