ITEM: TIMESTEP
77100
ITEM: NUMBER OF ATOMS
1800
ITEM: BOX BOUNDS pp pp pp
-4.6644485509031348e+00 4.3472464050902296e+01
1.0792941766049928e+00 2.0529361323395285e+01
-5.1682327950093310e-01 2.1770556779500389e+01
ITEM: ATOMS id mol type q x y z ix iy iz
1 1 1 -0.091211 3.00797 10.2528 17.12 0 -1 0
2 1 1 -0.050311 3.41946 10.8161 15.7132 0 -1 0
3 1 2 -0.174311 3.2283 9.69457 14.7775 0 -1 0
4 1 2 -0.174311 4.16376 9.16588 13.9476 0 -1 0
5 1 1 -0.050311 5.50696 9.81464 13.6379 0 -1 0
6 1 1 -0.091211 5.36094 10.7752 12.5149 0 -1 0
7 1 3 0.033922 2.0075 9.82533 17.0058 0 -1 0
8 1 3 0.033922 3.01208 11.0271 17.8928 0 -1 0
9 1 3 0.033922 3.65389 9.40538 17.3678 0 -1 0
10 1 3 0.046089 2.793 11.6542 15.3941 0 -1 0
11 1 3 0.046089 4.45372 11.1684 15.7666 0 -1 0
12 1 4 0.121889 2.31952 9.11772 14.9169 0 -1 0
13 1 4 0.121889 3.9007 8.30003 13.3483 0 -1 0
14 1 3 0.046089 6.16716 8.98964 13.3546 0 -1 0
15 1 3 0.046089 5.94608 10.3283 14.4981 0 -1 0
16 1 3 0.033922 6.32268 11.2619 12.3282 0 -1 0
17 1 3 0.033922 5.09592 10.2277 11.6057 0 -1 0
18 1 3 0.033922 4.67295 11.6124 12.6646 0 -1 0
19 2 1 -0.091211 4.26502 5.78162 10.8982 0 0 0
20 2 1 -0.050311 5.56882 6.29975 10.2522 0 0 0
21 2 2 -0.174311 6.70781 5.2902 10.3572 0 0 0
22 2 2 -0.174311 8.07956 5.53313 10.2859 0 0 0
23 2 1 -0.050311 8.62868 6.93081 10.0226 0 0 0
24 2 1 -0.091211 9.92071 6.90049 9.28797 0 0 0
25 2 3 0.033922 4.38251 5.25703 11.851 0 0 0
26 2 3 0.033922 3.76482 5.14292 10.1644 0 0 0
27 2 3 0.033922 3.58765 6.61437 11.1089 0 0 0
28 2 3 0.046089 5.4081 6.55496 9.20066 0 0 0
29 2 3 0.046089 5.88326 7.20993 10.7712 0 0 0
30 2 4 0.121889 6.43586 4.26828 10.6017 0 0 0
31 2 4 0.121889 8.73417 4.66814 10.3228 0 0 0
32 2 3 0.046089 8.90577 7.32251 11.0057 0 0 0
33 2 3 0.046089 7.93353 7.58156 9.4841 0 0 0
34 2 3 0.033922 10.2755 7.88825 8.97946 0 0 0
35 2 3 0.033922 10.6837 6.47326 9.94529 0 0 0
36 2 3 0.033922 9.79519 6.34513 8.35388 0 0 0
37 3 1 -0.091211 -0.878308 1.17304 10.2925 0 0 0
38 3 1 -0.050311 0.598182 1.63472 10.0648 0 0 0
39 3 2 -0.174311 1.40126 19.9124 9.49496 0 -1 0
40 3 2 -0.174311 2.69229 19.5489 9.76246 0 -1 0
41 3 1 -0.050311 3.6344 20.4244 10.5936 0 -1 0
42 3 1 -0.091211 4.71707 1.38135 9.56122 0 0 0
43 3 3 0.033922 -1.20073 20.2595 9.31243 0 -1 0
44 3 3 0.033922 -1.57402 1.97751 10.5484 0 0 0
45 3 3 0.033922 -0.936946 19.9088 11.1189 0 -1 0
46 3 3 0.046089 0.615315 2.46934 9.35787 0 0 0
47 3 3 0.046089 0.974201 2.03084 11.0127 0 0 0
48 3 4 0.121889 0.871224 19.279 8.79073 0 -1 0
49 3 4 0.121889 3.04916 18.6469 9.27559 0 -1 0
50 3 3 0.046089 3.99825 19.824 11.4326 0 -1 0
51 3 3 0.046089 3.0804 1.84856 10.9478 0 0 0
52 3 3 0.033922 5.45229 2.01848 10.0614 0 0 0
53 3 3 0.033922 5.21862 19.9772 9.09703 0 -1 0
54 3 3 0.033922 4.14875 1.99908 8.85971 0 0 0
55 4 1 -0.091211 -0.277989 16.8027 11.4929 0 -1 0
56 4 1 -0.050311 -0.127227 17.7042 12.7465 0 -1 0
57 4 2 -0.174311 0.567755 16.8984 13.8073 0 -1 0
58 4 2 -0.174311 1.65196 17.3864 14.518 0 -1 0
59 4 1 -0.050311 2.45503 18.6342 14.3006 0 -1 0
60 4 1 -0.091211 1.7474 19.7969 15.0192 0 -1 0
61 4 3 0.033922 0.688407 16.6824 10.9946 0 -1 0
62 4 3 0.033922 -0.977098 17.2965 10.8116 0 -1 0
63 4 3 0.033922 -0.755155 15.8418 11.7065 0 -1 0
64 4 3 0.046089 0.471006 18.5654 12.4348 0 -1 0
65 4 3 0.046089 -1.13751 17.9879 13.0556 0 -1 0
66 4 4 0.121889 0.120869 15.9312 14.0143 0 -1 0
67 4 4 0.121889 1.98608 16.7954 15.3649 0 -1 0
68 4 3 0.046089 2.60123 18.8368 13.2356 0 -1 0
69 4 3 0.046089 3.45782 18.4553 14.6995 0 -1 0
70 4 3 0.033922 1.34243 19.5058 15.9928 0 -1 0
71 4 3 0.033922 2.50198 1.11075 15.2284 0 0 0
72 4 3 0.033922 0.92841 20.2098 14.4229 0 -1 0
73 5 1 -0.091211 -3.7688 10.1682 8.43272 0 0 0
74 5 1 -0.050311 43.4025 9.88961 7.25461 -1 0 0
75 5 2 -0.174311 42.1177 9.43045 7.84907 -1 0 0
76 5 2 -0.174311 41.3704 8.5104 7.16753 -1 0 0
77 5 1 -0.050311 41.5494 7.76586 5.92787 -1 0 0
78 5 1 -0.091211 40.2227 7.96634 5.17209 -1 0 0
79 5 3 0.033922 -4.32349 10.8475 9.08662 0 0 0
80 5 3 0.033922 -2.90476 10.6916 8.01303 0 0 0
81 5 3 0.033922 -3.53099 9.27383 9.01605 0 0 0
82 5 3 0.046089 43.2496 10.8145 6.69076 -1 0 0
83 5 3 0.046089 -4.24574 9.16683 6.59473 0 0 0
84 5 4 0.121889 41.7043 9.89727 8.73748 -1 0 0
85 5 4 0.121889 40.4496 8.25442 7.68209 -1 0 0
86 5 3 0.046089 41.793 6.71338 6.10005 -1 0 0
87 5 3 0.046089 42.3757 8.21741 5.37097 -1 0 0
88 5 3 0.033922 39.9299 9.01572 5.07328 -1 0 0
89 5 3 0.033922 40.268 7.51625 4.17606 -1 0 0
90 5 3 0.033922 39.3944 7.48148 5.69704 -1 0 0
91 6 1 -0.091211 9.71657 1.76306 2.58204 0 0 1
92 6 1 -0.050311 8.68652 2.03328 1.43668 0 0 1
93 6 2 -0.174311 7.36394 1.29807 1.61281 0 0 1
94 6 2 -0.174311 6.55245 20.2574 0.615847 0 -1 1
95 6 1 -0.050311 6.80224 20.3152 21.4617 0 -1 0
96 6 1 -0.091211 6.31932 2.06484 20.8205 0 0 0
97 6 3 0.033922 10.6308 2.30319 2.31909 0 0 1
98 6 3 0.033922 9.89626 20.1412 2.70577 0 -1 1
99 6 3 0.033922 9.24472 2.08459 3.51514 0 0 1
100 6 3 0.046089 8.54964 3.11486 1.34649 0 0 1
101 6 3 0.046089 9.14055 1.66492 0.512092 0 0 1
102 6 4 0.121889 7.00675 1.0361 2.60371 0 0 1
103 6 4 0.121889 5.58511 19.872 0.922078 0 -1 1
104 6 3 0.046089 6.40008 19.422 20.9747 0 -1 0
105 6 3 0.046089 7.8696 20.2673 21.2269 0 -1 0
106 6 3 0.033922 6.78849 2.08471 19.8325 0 0 0
107 6 3 0.033922 5.2836 1.9496 20.4878 0 0 0
108 6 3 0.033922 6.62105 2.95151 21.3857 0 0 0
109 7 1 -0.091211 33.152 2.09462 -0.116526 -1 1 0
110 7 1 -0.050311 34.0118 2.14456 20.934 -1 1 -1
111 7 2 -0.174311 34.023 3.52049 20.249 -1 1 -1
112 7 2 -0.174311 34.3817 3.6669 18.8728 -1 1 -1
113 7 1 -0.050311 34.849 2.52296 17.9689 -1 1 -1
114 7 1 -0.091211 34.2927 2.73377 16.5113 -1 1 -1
115 7 3 0.033922 32.1169 2.41621 -0.264702 -1 1 0
116 7 3 0.033922 33.7218 2.6552 0.630328 -1 1 0
117 7 3 0.033922 33.0164 1.06009 0.212234 -1 1 0
118 7 3 0.046089 35.0646 2.05823 21.2183 -1 1 -1
119 7 3 0.046089 33.6886 1.33693 20.2707 -1 1 -1
120 7 4 0.121889 33.7699 4.36878 20.8771 -1 1 -1
121 7 4 0.121889 34.4904 4.67718 18.4912 -1 1 -1
122 7 3 0.046089 34.6021 1.51882 18.3259 -1 1 -1
123 7 3 0.046089 35.9324 2.49636 17.8194 -1 1 -1
124 7 3 0.033922 34.3925 3.77539 16.1923 -1 1 -1
125 7 3 0.033922 34.8454 2.08562 15.8249 -1 1 -1
126 7 3 0.033922 33.254 2.43115 16.349 -1 1 -1
127 8 1 -0.091211 -2.55847 7.85379 0.374378 0 0 1
128 8 1 -0.050311 -3.29862 8.50332 1.60805 0 0 1
129 8 2 -0.174311 43.4578 7.93452 1.66544 -1 0 1
130 8 2 -0.174311 42.3111 8.64407 2.03697 -1 0 1
131 8 1 -0.050311 42.312 10.0897 2.40875 -1 0 1
132 8 1 -0.091211 40.852 10.6386 2.35944 -1 0 1
133 8 3 0.033922 -3.03974 8.08462 21.7069 0 0 0
134 8 3 0.033922 -2.4909 6.76303 0.423063 0 0 1
135 8 3 0.033922 -1.57557 8.33375 0.359026 0 0 1
136 8 3 0.046089 -2.72335 8.29846 2.51568 0 0 1
137 8 3 0.046089 -3.23586 9.58186 1.43632 0 0 1
138 8 4 0.121889 43.238 6.8907 1.46498 -1 0 1
139 8 4 0.121889 41.3725 8.0993 2.0212 -1 0 1
140 8 3 0.046089 42.8552 10.7455 1.72209 -1 0 1
141 8 3 0.046089 42.7231 10.2246 3.41351 -1 0 1
142 8 3 0.033922 40.8365 11.7318 2.32344 -1 0 1
143 8 3 0.033922 40.3892 10.1456 1.49947 -1 0 1
144 8 3 0.033922 40.2661 10.3253 3.22855 -1 0 1
145 9 1 -0.091211 35.7801 8.30325 -0.296121 -1 1 1
146 9 1 -0.050311 36.1149 6.79476 -0.112924 -1 1 1
147 9 2 -0.174311 36.2226 6.60933 1.3585 -1 1 1
148 9 2 -0.174311 36.8586 5.57323 2.0009 -1 1 1
149 9 1 -0.050311 37.3992 4.376 1.22329 -1 1 1
150 9 1 -0.091211 37.2011 3.00767 2.0943 -1 1 1
151 9 3 0.033922 34.893 8.64548 0.244826 -1 1 1
152 9 3 0.033922 35.5353 8.59066 20.9645 -1 1 0
153 9 3 0.033922 36.6206 8.91677 0.0414434 -1 1 1
154 9 3 0.046089 35.2936 6.14714 21.8538 -1 1 0
155 9 3 0.046089 37.0372 6.63711 -0.679571 -1 1 1
156 9 4 0.121889 35.8168 7.3672 2.0211 -1 1 1
157 9 4 0.121889 36.9916 5.60038 3.07779 -1 1 1
158 9 3 0.046089 38.4715 4.40603 1.00921 -1 1 1
159 9 3 0.046089 36.9516 4.27956 0.229796 -1 1 1
160 9 3 0.033922 36.1251 2.83174 2.18343 -1 1 1
161 9 3 0.033922 37.7261 2.14753 1.66853 -1 1 1
162 9 3 0.033922 37.6472 3.07449 3.09095 -1 1 1
163 10 1 -0.091211 5.40911 10.5834 8.14454 0 0 1
164 10 1 -0.050311 6.41841 11.2165 9.09605 0 0 1
165 10 2 -0.174311 7.33336 12.159 8.34391 0 0 1
166 10 2 -0.174311 8.4076 11.7792 7.6497 0 0 1
167 10 1 -0.050311 8.85337 10.308 7.38786 0 0 1
168 10 1 -0.091211 9.20247 9.90261 5.93974 0 0 1
169 10 3 0.033922 4.71143 11.3536 7.80303 0 0 1
170 10 3 0.033922 4.86837 9.79975 8.68329 0 0 1
171 10 3 0.033922 5.85953 10.0195 7.32244 0 0 1
172 10 3 0.046089 5.81658 11.7252 9.85482 0 0 1
173 10 3 0.046089 6.89084 10.4004 9.65058 0 0 1
174 10 4 0.121889 7.15253 13.2248 8.44071 0 0 1
175 10 4 0.121889 9.01287 12.5514 7.18566 0 0 1
176 10 3 0.046089 8.0558 9.63464 7.71528 0 0 1
177 10 3 0.046089 9.71925 10.1325 8.03296 0 0 1
178 10 3 0.033922 8.39237 10.1919 5.2639 0 0 1
179 10 3 0.033922 10.0781 10.5217 5.72337 0 0 1
180 10 3 0.033922 9.49957 8.8555 5.83027 0 0 1
181 11 1 -0.091211 -0.081328 12.5615 12.8646 0 0 0
182 11 1 -0.050311 -0.728056 12.3782 14.2894 0 0 0
183 11 2 -0.174311 -1.99565 13.1259 14.5678 0 0 0
184 11 2 -0.174311 -2.10672 14.0361 15.6478 0 0 0
185 11 1 -0.050311 -0.969584 14.4818 16.5306 0 0 0
186 11 1 -0.091211 -1.58767 15.4641 17.5221 0 0 0
187 11 3 0.033922 -0.891165 12.5388 12.1295 0 0 0
188 11 3 0.033922 0.591667 11.7635 12.5374 0 0 0
189 11 3 0.033922 0.364831 13.559 12.8143 0 0 0
190 11 3 0.046089 -0.994469 11.3173 14.2728 0 0 0
191 11 3 0.046089 0.107231 12.647 14.9427 0 0 0
192 11 4 0.121889 -2.83934 12.8621 13.938 0 0 0
193 11 4 0.121889 -3.09972 14.4252 15.8493 0 0 0
194 11 3 0.046089 -0.176408 14.9618 15.95 0 0 0
195 11 3 0.046089 -0.529266 13.6655 17.1106 0 0 0
196 11 3 0.033922 -2.39019 14.9505 18.0597 0 0 0
197 11 3 0.033922 -0.785838 15.7325 18.2162 0 0 0
198 11 3 0.033922 -1.89969 16.3874 17.0255 0 0 0
199 12 1 -0.091211 1.16024 9.42115 10.787 0 0 0
200 12 1 -0.050311 -0.132049 8.63815 11.2095 0 0 0
201 12 2 -0.174311 0.294826 7.22562 11.3643 0 0 0
202 12 2 -0.174311 -0.247613 6.17855 10.6726 0 0 0
203 12 1 -0.050311 -1.41771 6.33206 9.70918 0 0 0
204 12 1 -0.091211 -1.91014 5.02865 9.11573 0 0 0
205 12 3 0.033922 0.872885 10.4223 10.4526 0 0 0
206 12 3 0.033922 1.60803 8.89236 9.94046 0 0 0
207 12 3 0.033922 1.86612 9.46738 11.6214 0 0 0
208 12 3 0.046089 -0.505984 9.06058 12.1467 0 0 0
209 12 3 0.046089 -0.738482 8.81711 10.3168 0 0 0
210 12 4 0.121889 1.10566 6.87484 11.9948 0 0 0
211 12 4 0.121889 0.132802 5.16852 10.7875 0 0 0
212 12 3 0.046089 -1.39435 7.14349 8.97588 0 0 0
213 12 3 0.046089 -2.15252 6.75785 10.3987 0 0 0
214 12 3 0.033922 -1.03754 4.59474 8.61877 0 0 0
215 12 3 0.033922 -2.29269 4.35423 9.88742 0 0 0
216 12 3 0.033922 -2.72136 5.15761 8.39324 0 0 0
217 13 1 -0.091211 -4.4186 14.974 6.28253 0 0 1
218 13 1 -0.050311 -2.91002 14.9112 5.87471 0 0 1
219 13 2 -0.174311 -2.20344 14.4683 7.08388 0 0 1
220 13 2 -0.174311 -0.932203 14.9465 7.49809 0 0 1
221 13 1 -0.050311 -0.145126 16.0805 6.77688 0 0 1
222 13 1 -0.091211 1.00183 16.5952 7.65162 0 0 1
223 13 3 0.033922 -4.77262 14.0203 6.68476 0 0 1
224 13 3 0.033922 43.0782 15.2799 5.4498 -1 0 1
225 13 3 0.033922 -4.61143 15.7981 6.97564 0 0 1
226 13 3 0.046089 -2.80453 14.2979 4.97503 0 0 1
227 13 3 0.046089 -2.54503 15.8758 5.51001 0 0 1
228 13 4 0.121889 -2.66303 13.6897 7.68438 0 0 1
229 13 4 0.121889 -0.353415 14.4963 8.29831 0 0 1
230 13 3 0.046089 -0.881449 16.875 6.62432 0 0 1
231 13 3 0.046089 0.255862 15.6659 5.84735 0 0 1
232 13 3 0.033922 1.70532 15.7941 7.89668 0 0 1
233 13 3 0.033922 1.58938 17.3548 7.12772 0 0 1
234 13 3 0.033922 0.612125 17.0654 8.55923 0 0 1
235 14 1 -0.091211 17.393 6.94517 6.60134 0 0 0
236 14 1 -0.050311 16.5686 8.0107 7.26772 0 0 0
237 14 2 -0.174311 16.0188 7.42464 8.5616 0 0 0
238 14 2 -0.174311 15.1023 7.88622 9.44224 0 0 0
239 14 1 -0.050311 14.5067 9.20065 9.39836 0 0 0
240 14 1 -0.091211 14.2826 9.65871 10.8914 0 0 0
241 14 3 0.033922 16.7069 6.182 6.22249 0 0 0
242 14 3 0.033922 18.0755 6.47135 7.31297 0 0 0
243 14 3 0.033922 18.03 7.28606 5.77989 0 0 0
244 14 3 0.046089 17.2202 8.8155 7.6205 0 0 0
245 14 3 0.046089 15.7997 8.36518 6.57503 0 0 0
246 14 4 0.121889 16.2652 6.41715 8.88148 0 0 0
247 14 4 0.121889 14.9236 7.26181 10.3119 0 0 0
248 14 3 0.046089 13.557 9.04838 8.87729 0 0 0
249 14 3 0.046089 15.1613 9.9031 8.8741 0 0 0
250 14 3 0.033922 14.5007 10.7286 10.9587 0 0 0
251 14 3 0.033922 13.2875 9.44544 11.2927 0 0 0
252 14 3 0.033922 14.9707 9.17975 11.5942 0 0 0
253 15 1 -0.091211 2.8828 3.00944 -0.40429 0 1 1
254 15 1 -0.050311 2.28922 1.79452 21.1323 0 1 0
255 15 2 -0.174311 1.45141 20.4738 -0.242757 0 0 1
256 15 2 -0.174311 1.62876 19.1335 0.143423 0 0 1
257 15 1 -0.050311 2.66172 18.2455 21.7543 0 0 0
258 15 1 -0.091211 3.05446 17.0446 0.236787 0 0 1
259 15 3 0.033922 2.14811 3.63976 0.105235 0 1 1
260 15 3 0.033922 3.49977 3.69078 21.2899 0 1 0
261 15 3 0.033922 3.54939 2.62867 0.375049 0 1 1
262 15 3 0.046089 1.62653 2.24883 20.3899 0 1 0
263 15 3 0.046089 3.08289 1.21439 20.6525 0 1 0
264 15 4 0.121889 0.545334 1.44357 0.182535 0 1 1
265 15 4 0.121889 1.11702 18.7224 1.00785 0 0 1
266 15 3 0.046089 3.57572 18.8217 21.5831 0 0 0
267 15 3 0.046089 2.29734 17.9321 20.7716 0 0 0
268 15 3 0.033922 3.75595 17.2133 1.05905 0 0 1
269 15 3 0.033922 2.17924 16.6101 0.728656 0 0 1
270 15 3 0.033922 3.61512 16.3451 -0.390161 0 0 1
271 16 1 -0.091211 12.5557 5.73907 7.32126 0 1 0
272 16 1 -0.050311 13.3014 5.8506 6.0337 0 1 0
273 16 2 -0.174311 13.0321 7.0521 5.14183 0 1 0
274 16 2 -0.174311 12.1564 7.21521 4.14084 0 1 0
275 16 1 -0.050311 11.2402 6.11209 3.73123 0 1 0
276 16 1 -0.091211 10.0616 6.71104 3.0041 0 1 0
277 16 3 0.033922 11.5095 5.69212 7.00526 0 1 0
278 16 3 0.033922 12.5741 6.65771 7.91494 0 1 0
279 16 3 0.033922 12.8481 4.91272 7.97573 0 1 0
280 16 3 0.046089 14.3653 5.71435 6.24861 0 1 0
281 16 3 0.046089 13.0339 5.00969 5.38716 0 1 0
282 16 4 0.121889 13.6599 7.8611 5.50165 0 1 0
283 16 4 0.121889 12.0575 8.15098 3.5999 0 1 0
284 16 3 0.046089 10.9301 5.51205 4.59174 0 1 0
285 16 3 0.046089 11.6606 5.34047 3.07966 0 1 0
286 16 3 0.033922 10.2719 7.0291 1.97876 0 1 0
287 16 3 0.033922 9.23202 6.01179 2.86436 0 1 0
288 16 3 0.033922 9.72159 7.53692 3.63577 0 1 0
289 17 1 -0.091211 10.4017 12.1939 12.397 0 0 0
290 17 1 -0.050311 9.2794 12.1753 13.5082 0 0 0
291 17 2 -0.174311 9.19137 10.9614 14.3658 0 0 0
292 17 2 -0.174311 8.89592 10.8904 15.7137 0 0 0
293 17 1 -0.050311 8.36604 12.0883 16.4617 0 0 0
294 17 1 -0.091211 7.65306 11.7293 17.6648 0 0 0
295 17 3 0.033922 10.1856 12.9567 11.6433 0 0 0
296 17 3 0.033922 10.417 11.2184 11.9022 0 0 0
297 17 3 0.033922 11.3901 12.4833 12.7656 0 0 0
298 17 3 0.046089 9.45318 13.0523 14.1386 0 0 0
299 17 3 0.046089 8.35383 12.4035 12.9716 0 0 0
300 17 4 0.121889 9.52823 10.0218 13.9394 0 0 0
301 17 4 0.121889 9.02071 9.90562 16.1528 0 0 0
302 17 3 0.046089 7.69657 12.6655 15.8171 0 0 0
303 17 3 0.046089 9.1468 12.7961 16.7552 0 0 0
304 17 3 0.033922 6.81478 11.042 17.5177 0 0 0
305 17 3 0.033922 8.36771 11.3291 18.3899 0 0 0
306 17 3 0.033922 7.20724 12.5767 18.1938 0 0 0
307 18 1 -0.091211 30.7765 4.09541 15.5923 -1 0 1
308 18 1 -0.050311 31.1892 3.64072 14.15 -1 0 1
309 18 2 -0.174311 31.9581 4.82958 13.599 -1 0 1
310 18 2 -0.174311 32.5648 4.78917 12.3295 -1 0 1
311 18 1 -0.050311 32.4589 3.56829 11.427 -1 0 1
312 18 1 -0.091211 33.4824 3.67064 10.2196 -1 0 1
313 18 3 0.033922 30.2654 3.22489 16.0138 -1 0 1
314 18 3 0.033922 30.2076 5.02973 15.5818 -1 0 1
315 18 3 0.033922 31.6575 4.301 16.2073 -1 0 1
316 18 3 0.046089 31.8958 2.80715 14.2005 -1 0 1
317 18 3 0.046089 30.3599 3.3647 13.4921 -1 0 1
318 18 4 0.121889 32.1506 5.72576 14.1803 -1 0 1
319 18 4 0.121889 33.171 5.63256 12.0145 -1 0 1
320 18 3 0.046089 31.429 3.54516 11.0589 -1 0 1
321 18 3 0.046089 32.6312 2.63435 11.9699 -1 0 1
322 18 3 0.033922 33.3802 4.56721 9.60122 -1 0 1
323 18 3 0.033922 34.5157 3.70504 10.5772 -1 0 1
324 18 3 0.033922 33.2793 2.80759 9.57884 -1 0 1
325 19 1 -0.091211 11.5833 12.4596 4.24557 0 0 0
326 19 1 -0.050311 10.6338 12.258 3.08766 0 0 0
327 19 2 -0.174311 10.7782 10.9659 2.35331 0 0 0
328 19 2 -0.174311 9.77405 10.3314 1.61433 0 0 0
329 19 1 -0.050311 8.3779 10.8842 1.35691 0 0 0
330 19 1 -0.091211 7.81053 10.765 -0.0754258 0 0 0
331 19 3 0.033922 11.2253 13.2776 4.87761 0 0 0
332 19 3 0.033922 12.5173 12.7916 3.78287 0 0 0
333 19 3 0.033922 11.757 11.5273 4.79083 0 0 0
334 19 3 0.046089 9.60016 12.3807 3.42413 0 0 0
335 19 3 0.046089 10.8476 13.0605 2.37566 0 0 0
336 19 4 0.121889 11.75 10.4889 2.43177 0 0 0
337 19 4 0.121889 10.0379 9.35832 1.21224 0 0 0
338 19 3 0.046089 8.25656 11.9153 1.7014 0 0 0
339 19 3 0.046089 7.76277 10.2318 1.98356 0 0 0
340 19 3 0.033922 8.02268 9.76024 21.8351 0 0 -1
341 19 3 0.033922 6.73261 10.951 -0.0895885 0 0 0
342 19 3 0.033922 8.35896 11.371 21.4848 0 0 -1
343 20 1 -0.091211 8.76365 19.2215 8.78626 0 -1 0
344 20 1 -0.050311 9.40604 20.3214 9.51369 0 -1 0
345 20 2 -0.174311 10.9258 20.2495 9.39362 0 -1 0
346 20 2 -0.174311 11.6628 1.45288 8.39814 0 0 0
347 20 1 -0.050311 10.9845 2.12108 7.19398 0 0 0
348 20 1 -0.091211 11.7134 1.71864 5.84656 0 0 0
349 20 3 0.033922 9.14142 18.2446 9.10189 0 -1 0
350 20 3 0.033922 8.91648 19.2682 7.70406 0 -1 0
351 20 3 0.033922 7.68175 19.3263 8.90952 0 -1 0
352 20 3 0.046089 9.06035 1.8498 9.16745 0 0 0
353 20 3 0.046089 9.13148 20.3702 10.5715 0 -1 0
354 20 4 0.121889 11.4582 19.7326 10.1857 0 -1 0
355 20 4 0.121889 12.7429 1.36003 8.45287 0 0 0
356 20 3 0.046089 10.9924 3.20235 7.35972 0 0 0
357 20 3 0.046089 9.9365 1.81379 7.1308 0 0 0
358 20 3 0.033922 12.7775 1.97137 5.82295 0 0 0
359 20 3 0.033922 11.6603 20.0819 5.73423 0 -1 0
360 20 3 0.033922 11.3335 2.2775 4.98632 0 0 0
361 21 1 -0.091211 -3.65761 3.17872 20.5581 0 0 0
362 21 1 -0.050311 -2.82375 1.92549 20.3346 0 0 0
363 21 2 -0.174311 -2.32659 1.38537 21.6607 0 0 0
364 21 2 -0.174311 -2.22451 19.5005 -0.369059 0 -1 1
365 21 1 -0.050311 -2.32636 18.3745 20.8532 0 -1 0
366 21 1 -0.091211 -1.07701 17.4793 20.9518 0 -1 0
367 21 3 0.033922 -4.5838 2.86136 21.0461 0 0 0
368 21 3 0.033922 -3.93523 3.64282 19.6072 0 0 0
369 21 3 0.033922 -3.16502 3.98842 21.1044 0 0 0
370 21 3 0.046089 -3.51859 1.22217 19.8663 0 0 0
371 21 3 0.046089 -1.93891 2.12519 19.7231 0 0 0
372 21 4 0.121889 -2.11155 2.1114 0.150915 0 0 1
373 21 4 0.121889 -1.81698 19.1747 0.582727 0 -1 1
374 21 3 0.046089 -2.24996 18.7655 19.8344 0 -1 0
375 21 3 0.046089 -3.23831 17.8107 21.0702 0 -1 0
376 21 3 0.033922 -0.951157 17.1537 -0.298889 0 -1 1
377 21 3 0.033922 -1.31842 16.6027 20.3435 0 -1 0
378 21 3 0.033922 -0.19403 18.0363 20.6249 0 -1 0
379 22 1 -0.091211 5.92332 14.6911 14.8098 0 -1 0
380 22 1 -0.050311 5.1374 14.2736 16.0298 0 -1 0
381 22 2 -0.174311 5.7404 14.9546 17.2095 0 -1 0
382 22 2 -0.174311 5.07153 15.5781 18.2434 0 -1 0
383 22 1 -0.050311 3.57461 15.8399 18.2831 0 -1 0
384 22 1 -0.091211 3.132 17.2725 18.0103 0 -1 0
385 22 3 0.033922 5.80456 14.0047 13.9663 0 -1 0
386 22 3 0.033922 6.97951 14.602 15.0803 0 -1 0
387 22 3 0.033922 5.6161 15.701 14.5226 0 -1 0
388 22 3 0.046089 4.07729 14.431 15.8106 0 -1 0
389 22 3 0.046089 5.2678 13.2116 16.2574 0 -1 0
390 22 4 0.121889 6.81861 15.0325 17.3069 0 -1 0
391 22 4 0.121889 5.72548 15.9375 19.0316 0 -1 0
392 22 3 0.046089 3.30382 15.5887 19.3128 0 -1 0
393 22 3 0.046089 3.03722 15.1625 17.613 0 -1 0
394 22 3 0.033922 3.35112 17.9343 18.8533 0 -1 0
395 22 3 0.033922 3.62625 17.4943 17.0599 0 -1 0
396 22 3 0.033922 2.05375 17.365 17.8506 0 -1 0
397 23 1 -0.091211 0.598734 7.58022 2.74298 0 0 0
398 23 1 -0.050311 1.51052 7.8897 3.89752 0 0 0
399 23 2 -0.174311 0.697216 8.31444 5.1295 0 0 0
400 23 2 -0.174311 1.05594 9.14252 6.12343 0 0 0
401 23 1 -0.050311 2.41419 9.8226 6.20424 0 0 0
402 23 1 -0.091211 2.27709 11.2582 6.33184 0 0 0
403 23 3 0.033922 1.09399 7.34827 1.79555 0 0 0
404 23 3 0.033922 -0.000699187 8.48017 2.57729 0 0 0
405 23 3 0.033922 -0.0483581 6.76825 3.08746 0 0 0
406 23 3 0.046089 2.13976 7.01009 4.06195 0 0 0
407 23 3 0.046089 2.14619 8.69465 3.51717 0 0 0
408 23 4 0.121889 -0.343751 8.00835 5.15726 0 0 0
409 23 4 0.121889 0.31837 9.31365 6.90111 0 0 0
410 23 3 0.046089 2.9566 9.7049 5.26156 0 0 0
411 23 3 0.046089 3.00268 9.35574 6.99949 0 0 0
412 23 3 0.033922 2.28654 11.6013 7.37055 0 0 0
413 23 3 0.033922 3.19464 11.7346 5.97421 0 0 0
414 23 3 0.033922 1.40608 11.653 5.8006 0 0 0
415 24 1 -0.091211 2.10861 14.8817 3.54736 0 0 0
416 24 1 -0.050311 3.17566 15.2934 4.53317 0 0 0
417 24 2 -0.174311 4.34061 16.0696 3.95034 0 0 0
418 24 2 -0.174311 5.53096 15.5273 3.49785 0 0 0
419 24 1 -0.050311 5.93582 14.1053 3.55404 0 0 0
420 24 1 -0.091211 6.77821 13.7241 4.82565 0 0 0
421 24 3 0.033922 1.5341 15.7147 3.13179 0 0 0
422 24 3 0.033922 1.41029 14.226 4.07561 0 0 0
423 24 3 0.033922 2.52947 14.3799 2.67113 0 0 0
424 24 3 0.046089 2.78534 15.8615 5.38265 0 0 0
425 24 3 0.046089 3.67688 14.4419 5.00256 0 0 0
426 24 4 0.121889 4.26223 17.1274 3.72011 0 0 0
427 24 4 0.121889 6.26461 16.2335 3.12221 0 0 0
428 24 3 0.046089 6.50208 13.7498 2.68824 0 0 0
429 24 3 0.046089 5.03231 13.5057 3.69817 0 0 0
430 24 3 0.033922 7.78779 14.0739 4.59093 0 0 0
431 24 3 0.033922 6.29589 14.1963 5.68651 0 0 0
432 24 3 0.033922 6.72496 12.6394 4.9569 0 0 0
433 25 1 -0.091211 1.23946 5.71248 14.6012 0 0 0
434 25 1 -0.050311 2.20737 5.24536 15.6883 0 0 0
435 25 2 -0.174311 1.69397 4.13469 16.5847 0 0 0
436 25 2 -0.174311 2.46009 3.0927 17.0155 0 0 0
437 25 1 -0.050311 3.89096 3.05431 16.9793 0 0 0
438 25 1 -0.091211 4.47494 1.75401 17.524 0 0 0
439 25 3 0.033922 1.27473 5.04196 13.7376 0 0 0
440 25 3 0.033922 1.62971 6.6668 14.2356 0 0 0
441 25 3 0.033922 0.258575 5.75029 15.084 0 0 0
442 25 3 0.046089 3.14344 5.00232 15.177 0 0 0
443 25 3 0.046089 2.49978 6.11177 16.2887 0 0 0
444 25 4 0.121889 0.639411 4.11328 16.8407 0 0 0
445 25 4 0.121889 1.88204 2.50972 17.7254 0 0 0
446 25 3 0.046089 4.24107 3.87467 17.6127 0 0 0
447 25 3 0.046089 4.12612 3.13563 15.9141 0 0 0
448 25 3 0.033922 4.13587 20.4334 16.8256 0 -1 0
449 25 3 0.033922 5.55317 1.86537 17.6713 0 0 0
450 25 3 0.033922 4.02242 1.56869 18.5026 0 0 0
451 26 1 -0.091211 1.61396 13.2086 21.0384 0 -1 0
452 26 1 -0.050311 1.50307 12.3273 -0.0444963 0 -1 1
453 26 2 -0.174311 0.185792 11.5843 0.0666727 0 -1 1
454 26 2 -0.174311 -0.528181 11.387 1.15379 0 -1 1
455 26 1 -0.050311 -0.0167962 11.7007 2.58304 0 -1 1
456 26 1 -0.091211 -0.833233 12.8288 3.12919 0 -1 1
457 26 3 0.033922 1.6022 12.6652 20.089 0 -1 0
458 26 3 0.033922 2.58632 13.7073 21.0886 0 -1 0
459 26 3 0.033922 0.803348 13.943 21.0208 0 -1 0
460 26 3 0.046089 2.37739 11.6738 0.0279496 0 -1 1
461 26 3 0.046089 1.56711 12.9013 0.884539 0 -1 1
462 26 4 0.121889 -0.188438 11.1397 21.4373 0 -1 0
463 26 4 0.121889 -1.48077 10.8721 1.07987 0 -1 1
464 26 3 0.046089 1.06977 11.8271 2.59181 0 -1 1
465 26 3 0.046089 -0.223776 10.8958 3.2943 0 -1 1
466 26 3 0.033922 -0.524306 13.0124 4.16242 0 -1 1
467 26 3 0.033922 -0.587347 13.7548 2.60124 0 -1 1
468 26 3 0.033922 -1.90377 12.6096 3.07831 0 -1 1
469 27 1 -0.091211 13.8359 16.025 0.449161 0 0 0
470 27 1 -0.050311 15.3169 15.5661 0.256541 0 0 0
471 27 2 -0.174311 16.0288 16.3524 21.4679 0 0 -1
472 27 2 -0.174311 17.4213 16.2994 21.2126 0 0 -1
473 27 1 -0.050311 18.381 15.3532 -0.268707 0 0 0
474 27 1 -0.091211 18.529 13.9666 21.319 0 0 -1
475 27 3 0.033922 13.4526 15.4952 1.32615 0 0 0
476 27 3 0.033922 13.3017 15.7251 -0.457145 0 0 0
477 27 3 0.033922 13.7077 17.0847 0.68856 0 0 0
478 27 3 0.046089 15.7208 15.7544 1.2556 0 0 0
479 27 3 0.046089 15.5041 14.5167 0.0106432 0 0 0
480 27 4 0.121889 15.4222 17.0754 20.9318 0 0 -1
481 27 4 0.121889 17.8094 17.0539 20.5357 0 0 -1
482 27 3 0.046089 18.0469 15.0739 0.734843 0 0 0
483 27 3 0.046089 19.3587 15.8438 -0.274945 0 0 0
484 27 3 0.033922 19.0427 13.9111 20.3547 0 0 -1
485 27 3 0.033922 19.0769 13.229 21.9127 0 0 -1
486 27 3 0.033922 17.5536 13.4879 21.1919 0 0 -1
487 28 1 -0.091211 8.29003 15.7756 20.3565 0 -1 -1
488 28 1 -0.050311 7.66674 15.1414 21.5716 0 -1 -1
489 28 2 -0.174311 7.57154 16.2328 0.304345 0 -1 0
490 28 2 -0.174311 8.54438 16.563 1.238 0 -1 0
491 28 1 -0.050311 9.81192 15.8449 1.58671 0 -1 0
492 28 1 -0.091211 10.4883 16.3523 2.85105 0 -1 0
493 28 3 0.033922 8.32918 14.984 19.6025 0 -1 -1
494 28 3 0.033922 9.28946 16.151 20.595 0 -1 -1
495 28 3 0.033922 7.69246 16.6626 20.1266 0 -1 -1
496 28 3 0.046089 6.63367 14.9169 21.2904 0 -1 -1
497 28 3 0.046089 8.17535 14.2191 -0.419953 0 -1 0
498 28 4 0.121889 6.70042 16.8757 0.381387 0 -1 0
499 28 4 0.121889 8.34135 17.3571 1.94955 0 -1 0
500 28 3 0.046089 10.4868 15.9058 0.727907 0 -1 0
501 28 3 0.046089 9.60286 14.7768 1.69747 0 -1 0
502 28 3 0.033922 11.1244 15.5285 3.18774 0 -1 0
503 28 3 0.033922 11.043 17.2504 2.56401 0 -1 0
504 28 3 0.033922 9.81421 16.5578 3.6878 0 -1 0
505 29 1 -0.091211 5.67462 8.35169 5.09193 0 0 0
506 29 1 -0.050311 6.60085 7.17846 4.5058 0 0 0
507 29 2 -0.174311 6.6527 7.41248 3.00926 0 0 0
508 29 2 -0.174311 6.42582 6.50555 1.99532 0 0 0
509 29 1 -0.050311 5.99063 5.10471 2.20029 0 0 0
510 29 1 -0.091211 4.45742 5.12789 2.16435 0 0 0
511 29 3 0.033922 4.68797 8.14111 4.669 0 0 0
512 29 3 0.033922 6.01634 9.28701 4.63905 0 0 0
513 29 3 0.033922 5.5902 8.32792 6.18235 0 0 0
514 29 3 0.046089 7.54272 7.39388 5.0188 0 0 0
515 29 3 0.046089 6.26561 6.16508 4.74529 0 0 0
516 29 4 0.121889 6.90243 8.41551 2.67813 0 0 0
517 29 4 0.121889 6.54199 6.72192 0.938067 0 0 0
518 29 3 0.046089 6.34403 4.7484 3.17233 0 0 0
519 29 3 0.046089 6.49365 4.46223 1.47168 0 0 0
520 29 3 0.033922 4.13918 5.97069 2.78492 0 0 0
521 29 3 0.033922 4.04137 5.33066 1.17314 0 0 0
522 29 3 0.033922 4.13947 4.14856 2.53384 0 0 0
523 30 1 -0.091211 3.1549 5.55711 7.31001 0 1 1
524 30 1 -0.050311 2.57851 4.21391 7.12444 0 1 1
525 30 2 -0.174311 1.42729 4.17973 6.15971 0 1 1
526 30 2 -0.174311 1.30866 3.45274 5.00624 0 1 1
527 30 1 -0.050311 2.34723 2.47735 4.50919 0 1 1
528 30 1 -0.091211 1.98466 2.22528 3.02851 0 1 1
529 30 3 0.033922 2.54318 6.12496 8.01715 0 1 1
530 30 3 0.033922 3.35248 6.08842 6.3744 0 1 1
531 30 3 0.033922 4.10901 5.33031 7.7947 0 1 1
532 30 3 0.046089 3.33025 3.48938 6.79788 0 1 1
533 30 3 0.046089 2.23266 3.91795 8.11917 0 1 1
534 30 4 0.121889 0.644715 4.82762 6.54167 0 1 1
535 30 4 0.121889 0.339242 3.52115 4.52289 0 1 1
536 30 3 0.046089 2.43643 1.53121 5.05099 0 1 1
537 30 3 0.046089 3.29403 3.00773 4.64686 0 1 1
538 30 3 0.033922 2.55055 1.376 2.63458 0 1 1
539 30 3 0.033922 0.928471 1.95306 2.94462 0 1 1
540 30 3 0.033922 2.14372 3.13179 2.43721 0 1 1
541 31 1 -0.091211 20.5452 19.5252 0.467703 0 0 1
542 31 1 -0.050311 21.343 19.2481 21.4258 0 0 0
543 31 2 -0.174311 20.5062 18.4444 20.4666 0 0 0
544 31 2 -0.174311 20.4952 18.6809 19.0662 0 0 0
545 31 1 -0.050311 21.2399 19.6842 18.1806 0 0 0
546 31 1 -0.091211 21.7087 18.9273 16.9311 0 0 0
547 31 3 0.033922 21.2139 20.1946 1.01673 0 0 1
548 31 3 0.033922 20.3895 18.7218 1.19366 0 0 1
549 31 3 0.033922 19.6407 20.0894 0.222279 0 0 1
550 31 3 0.046089 21.6428 20.1847 20.9465 0 0 0
551 31 3 0.046089 22.214 18.6504 21.7098 0 0 0
552 31 4 0.121889 19.9306 17.6602 20.9482 0 0 0
553 31 4 0.121889 19.8169 18.1185 18.4324 0 0 0
554 31 3 0.046089 22.0946 20.0798 18.7371 0 0 0
555 31 3 0.046089 20.5702 20.5058 17.9098 0 0 0
556 31 3 0.033922 22.166 17.9849 17.2462 0 0 0
557 31 3 0.033922 20.862 18.6906 16.2802 0 0 0
558 31 3 0.033922 22.4175 19.5474 16.3746 0 0 0
559 32 1 -0.091211 17.0614 2.09716 2.57736 0 1 0
560 32 1 -0.050311 15.8379 2.98892 2.70685 0 1 0
561 32 2 -0.174311 15.8293 3.90193 1.47674 0 1 0
562 32 2 -0.174311 14.8159 4.05084 0.585275 0 1 0
563 32 1 -0.050311 13.4398 3.41049 0.657674 0 1 0
564 32 1 -0.091211 12.4483 4.25285 -0.135279 0 1 0
565 32 3 0.033922 17.0679 1.33361 3.36072 0 1 0
566 32 3 0.033922 17.9568 2.71972 2.66345 0 1 0
567 32 3 0.033922 17.0276 1.49063 1.6676 0 1 0
568 32 3 0.046089 14.9537 2.35359 2.81288 0 1 0
569 32 3 0.046089 15.9993 3.51287 3.65349 0 1 0
570 32 4 0.121889 16.7985 4.25841 1.14257 0 1 0
571 32 4 0.121889 15.114 4.67461 -0.251449 0 1 0
572 32 3 0.046089 13.0918 3.3302 1.69166 0 1 0
573 32 3 0.046089 13.5419 2.39477 0.264489 0 1 0
574 32 3 0.033922 11.3868 3.98875 -0.129219 0 1 0
575 32 3 0.033922 12.5893 5.26797 0.247284 0 1 0
576 32 3 0.033922 12.8251 4.12193 21.1335 0 1 -1
577 33 1 -0.091211 14.7311 11.1136 14.436 0 0 0
578 33 1 -0.050311 14.7818 11.5294 15.8185 0 0 0
579 33 2 -0.174311 15.9147 12.4521 16.0641 0 0 0
580 33 2 -0.174311 15.9178 13.6501 16.7356 0 0 0
581 33 1 -0.050311 14.6873 14.4318 17.1963 0 0 0
582 33 1 -0.091211 14.9921 15.2359 18.4338 0 0 0
583 33 3 0.033922 15.7071 10.6903 14.1813 0 0 0
584 33 3 0.033922 14.3506 11.9622 13.86 0 0 0
585 33 3 0.033922 14.0624 10.2515 14.3566 0 0 0
586 33 3 0.046089 13.8365 12.0301 16.0473 0 0 0
587 33 3 0.046089 14.934 10.6864 16.4989 0 0 0
588 33 4 0.121889 16.891 11.9883 15.9657 0 0 0
589 33 4 0.121889 16.9004 14.0429 16.9768 0 0 0
590 33 3 0.046089 13.8505 13.7851 17.4761 0 0 0
591 33 3 0.046089 14.3668 15.0567 16.3575 0 0 0
592 33 3 0.033922 15.3051 14.5601 19.235 0 0 0
593 33 3 0.033922 15.7709 15.9658 18.1942 0 0 0
594 33 3 0.033922 14.1769 15.8915 18.7538 0 0 0
595 34 1 -0.091211 15.6234 2.26854 6.86117 0 1 0
596 34 1 -0.050311 16.4447 2.79772 8.11491 0 1 0
597 34 2 -0.174311 15.5878 3.65345 9.12197 0 1 0
598 34 2 -0.174311 15.2075 3.19027 10.3662 0 1 0
599 34 1 -0.050311 15.3615 1.78911 10.9229 0 1 0
600 34 1 -0.091211 13.9719 1.40722 11.514 0 1 0
601 34 3 0.033922 14.8682 1.51244 7.09511 0 1 0
602 34 3 0.033922 16.2766 1.74998 6.1533 0 1 0
603 34 3 0.033922 15.1159 3.09034 6.34754 0 1 0
604 34 3 0.046089 16.8457 1.93155 8.64937 0 1 0
605 34 3 0.046089 17.3057 3.32619 7.69524 0 1 0
606 34 4 0.121889 15.3611 4.65226 8.76276 0 1 0
607 34 4 0.121889 14.8232 3.91703 11.0749 0 1 0
608 34 3 0.046089 16.1709 1.74149 11.6573 0 1 0
609 34 3 0.046089 15.5768 20.4244 10.2255 0 0 0
610 34 3 0.033922 13.6879 2.09383 12.3169 0 1 0
611 34 3 0.033922 13.0989 1.47494 10.8582 0 1 0
612 34 3 0.033922 14.0815 19.8185 11.8389 0 0 0
613 35 1 -0.091211 36.2014 11.2082 18.7058 -1 0 0
614 35 1 -0.050311 36.1123 12.0847 20.0096 -1 0 0
615 35 2 -0.174311 37.3401 12.9962 19.9981 -1 0 0