ITEM: TIMESTEP
72900
ITEM: NUMBER OF ATOMS
1800
ITEM: BOX BOUNDS pp pp pp
-4.3690115086560688e+00 4.3177027008655287e+01
6.7475033164594045e-01 2.0933905168354411e+01
-2.3662688903147178e-01 2.1490360389031057e+01
ITEM: ATOMS id mol type q x y z ix iy iz
1 1 1 -0.091211 2.83752 10.3456 16.8425 0 -1 0
2 1 1 -0.050311 1.4634 10.3387 16.2144 0 -1 0
3 1 2 -0.174311 0.828852 11.6772 16.5457 0 -1 0
4 1 2 -0.174311 0.482399 12.7162 15.6464 0 -1 0
5 1 1 -0.050311 0.615985 12.7248 14.1397 0 -1 0
6 1 1 -0.091211 1.49857 13.9099 13.7345 0 -1 0
7 1 3 0.033922 3.41725 11.1482 16.3775 0 -1 0
8 1 3 0.033922 3.3598 9.40166 16.6611 0 -1 0
9 1 3 0.033922 2.84384 10.4897 17.9269 0 -1 0
10 1 3 0.046089 1.4841 10.0202 15.1681 0 -1 0
11 1 3 0.046089 0.917132 9.50971 16.6738 0 -1 0
12 1 4 0.121889 0.622603 11.8619 17.5952 0 -1 0
13 1 4 0.121889 0.147225 13.6558 16.0741 0 -1 0
14 1 3 0.046089 -0.367122 12.8988 13.6927 0 -1 0
15 1 3 0.046089 1.07542 11.837 13.6956 0 -1 0
16 1 3 0.033922 1.83938 13.746 12.708 0 -1 0
17 1 3 0.033922 0.946373 14.8482 13.8409 0 -1 0
18 1 3 0.033922 2.40862 14.0482 14.3255 0 -1 0
19 2 1 -0.091211 7.13319 4.19005 9.82268 0 0 0
20 2 1 -0.050311 8.16217 5.24353 9.8675 0 0 0
21 2 2 -0.174311 9.49858 4.82697 10.4691 0 0 0
22 2 2 -0.174311 10.7378 5.30364 10.0596 0 0 0
23 2 1 -0.050311 10.907 6.47169 9.1141 0 0 0
24 2 1 -0.091211 12.3758 6.61472 8.73316 0 0 0
25 2 3 0.033922 7.10784 3.67332 10.7865 0 0 0
26 2 3 0.033922 7.30081 3.41571 9.0684 0 0 0
27 2 3 0.033922 6.16736 4.66173 9.61943 0 0 0
28 2 3 0.046089 8.3128 5.57192 8.83496 0 0 0
29 2 3 0.046089 7.68514 6.08867 10.3723 0 0 0
30 2 4 0.121889 9.49399 3.99536 11.1665 0 0 0
31 2 4 0.121889 11.5979 4.84967 10.5414 0 0 0
32 2 3 0.046089 10.5013 7.35491 9.61603 0 0 0
33 2 3 0.046089 10.2988 6.37152 8.21041 0 0 0
34 2 3 0.033922 12.5574 7.17138 7.80913 0 0 0
35 2 3 0.033922 12.9549 7.0869 9.53214 0 0 0
36 2 3 0.033922 12.6966 5.57973 8.58323 0 0 0
37 3 1 -0.091211 -0.584701 2.56232 11.7342 0 0 0
38 3 1 -0.050311 0.675102 2.7872 12.525 0 0 0
39 3 2 -0.174311 1.41735 1.50411 12.861 0 0 0
40 3 2 -0.174311 2.76545 1.42898 12.7944 0 0 0
41 3 1 -0.050311 3.67021 2.44386 12.2612 0 0 0
42 3 1 -0.091211 5.05939 2.14644 12.7251 0 0 0
43 3 3 0.033922 -0.235819 2.0662 10.8238 0 0 0
44 3 3 0.033922 -0.984032 3.55423 11.5034 0 0 0
45 3 3 0.033922 -1.29371 1.99138 12.3408 0 0 0
46 3 3 0.046089 1.31887 3.41712 11.9042 0 0 0
47 3 3 0.046089 0.301109 3.26818 13.4335 0 0 0
48 3 4 0.121889 0.871705 0.629183 13.1999 0 0 0
49 3 4 0.121889 3.14539 20.7256 13.1218 0 -1 0
50 3 3 0.046089 3.37605 3.46353 12.5264 0 0 0
51 3 3 0.046089 3.66545 2.3399 11.1722 0 0 0
52 3 3 0.033922 5.73702 2.83277 12.209 0 0 0
53 3 3 0.033922 5.10641 2.23033 13.8148 0 0 0
54 3 3 0.033922 5.32349 1.11466 12.4755 0 0 0
55 4 1 -0.091211 0.0149057 18.016 14.2779 0 -1 0
56 4 1 -0.050311 0.463485 18.8335 15.4753 0 -1 0
57 4 2 -0.174311 0.607897 17.9149 16.6593 0 -1 0
58 4 2 -0.174311 0.840577 18.4208 17.897 0 -1 0
59 4 1 -0.050311 0.933665 19.9162 18.2993 0 -1 0
60 4 1 -0.091211 1.46156 20.018 19.7588 0 -1 0
61 4 3 0.033922 0.804165 17.5474 13.6828 0 -1 0
62 4 3 0.033922 -0.581232 18.6186 13.5864 0 -1 0
63 4 3 0.033922 -0.54772 17.1521 14.6437 0 -1 0
64 4 3 0.046089 1.45963 19.1516 15.1542 0 -1 0
65 4 3 0.046089 -0.196915 19.6603 15.7523 0 -1 0
66 4 4 0.121889 0.704899 16.8423 16.5245 0 -1 0
67 4 4 0.121889 1.13711 17.6929 18.6455 0 -1 0
68 4 3 0.046089 -0.0464704 20.3637 18.1102 0 -1 0
69 4 3 0.046089 1.6391 20.4163 17.6293 0 -1 0
70 4 3 0.033922 2.48567 19.653 19.8796 0 -1 0
71 4 3 0.033922 1.5076 0.802278 20.084 0 0 0
72 4 3 0.033922 0.865087 19.4099 20.4452 0 -1 0
73 5 1 -0.091211 42.2887 9.67309 8.96081 -1 0 0
74 5 1 -0.050311 41.5941 8.62716 9.72267 -1 0 0
75 5 2 -0.174311 40.1003 8.67409 9.40523 -1 0 0
76 5 2 -0.174311 39.5115 8.26556 8.20101 -1 0 0
77 5 1 -0.050311 40.1755 7.59048 7.04321 -1 0 0
78 5 1 -0.091211 39.4319 6.32478 6.58239 -1 0 0
79 5 3 0.033922 -4.27879 9.85531 9.41446 0 0 0
80 5 3 0.033922 41.7596 10.6296 8.91945 -1 0 0
81 5 3 0.033922 42.3663 9.44393 7.89399 -1 0 0
82 5 3 0.046089 41.9422 7.62467 9.45721 -1 0 0
83 5 3 0.046089 41.7076 8.70786 10.8077 -1 0 0
84 5 4 0.121889 39.4849 9.07304 10.2053 -1 0 0
85 5 4 0.121889 38.4265 8.26995 8.22829 -1 0 0
86 5 3 0.046089 41.2329 7.49093 7.30479 -1 0 0
87 5 3 0.046089 40.2161 8.27029 6.18714 -1 0 0
88 5 3 0.033922 38.4484 6.6963 6.28037 -1 0 0
89 5 3 0.033922 39.9634 5.98216 5.68977 -1 0 0
90 5 3 0.033922 39.4862 5.59692 7.3972 -1 0 0
91 6 1 -0.091211 9.74006 2.9422 2.10589 0 0 1
92 6 1 -0.050311 9.07148 3.56019 0.800707 0 0 1
93 6 2 -0.174311 8.51427 2.45905 -0.180601 0 0 1
94 6 2 -0.174311 7.26558 1.87375 -0.128848 0 0 1
95 6 1 -0.050311 6.35507 2.13748 0.997089 0 0 1
96 6 1 -0.091211 4.99102 1.63514 0.685137 0 0 1
97 6 3 0.033922 10.0863 3.76936 2.73243 0 0 1
98 6 3 0.033922 10.6436 2.38649 1.83846 0 0 1
99 6 3 0.033922 9.09454 2.23437 2.634 0 0 1
100 6 3 0.046089 8.2801 4.21647 1.17441 0 0 1
101 6 3 0.046089 9.77973 4.21909 0.289962 0 0 1
102 6 4 0.121889 9.13561 2.20962 20.6921 0 0 0
103 6 4 0.121889 7.17739 1.11253 20.8295 0 0 0
104 6 3 0.046089 6.35555 3.21974 1.15625 0 0 1
105 6 3 0.046089 6.69649 1.68199 1.93123 0 0 1
106 6 3 0.033922 4.20201 1.94754 1.37543 0 0 1
107 6 3 0.033922 4.6929 2.21344 21.5327 0 0 0
108 6 3 0.033922 4.98716 20.8367 0.405798 0 -1 1
109 7 1 -0.091211 32.2101 1.59143 20.9962 -1 1 -1
110 7 1 -0.050311 32.6996 0.654655 19.8531 -1 1 -1
111 7 2 -0.174311 33.1072 1.4966 18.5944 -1 1 -1
112 7 2 -0.174311 33.6509 0.99634 17.501 -1 1 -1
113 7 1 -0.050311 33.7062 19.7505 17.3108 -1 0 -1
114 7 1 -0.091211 33.5995 19.3493 15.7675 -1 0 -1
115 7 3 0.033922 31.3695 2.18814 20.6302 -1 1 -1
116 7 3 0.033922 32.9659 2.31083 21.3245 -1 1 -1
117 7 3 0.033922 31.9567 1.1704 0.246544 -1 1 0
118 7 3 0.046089 33.5643 20.4029 20.2866 -1 0 -1
119 7 3 0.046089 31.9526 20.1441 19.6383 -1 0 -1
120 7 4 0.121889 32.9844 2.56776 18.7192 -1 1 -1
121 7 4 0.121889 33.9172 1.56618 16.6165 -1 1 -1
122 7 3 0.046089 33.023 19.2038 17.9673 -1 0 -1
123 7 3 0.046089 34.7292 19.4413 17.5444 -1 0 -1
124 7 3 0.033922 34.2599 19.8595 15.0603 -1 0 -1
125 7 3 0.033922 33.9722 18.3231 15.6994 -1 0 -1
126 7 3 0.033922 32.5525 19.4786 15.4781 -1 0 -1
127 8 1 -0.091211 41.227 8.7099 3.44359 -1 0 1
128 8 1 -0.050311 42.5255 8.32258 4.24455 -1 0 1
129 8 2 -0.174311 -3.87569 8.2461 3.30963 0 0 1
130 8 2 -0.174311 -2.95466 9.24141 2.8344 0 0 1
131 8 1 -0.050311 -3.16845 10.5959 3.33722 0 0 1
132 8 1 -0.091211 -2.07214 11.5239 2.79539 0 0 1
133 8 3 0.033922 40.3825 8.6609 4.1372 -1 0 1
134 8 3 0.033922 40.9831 8.02478 2.62642 -1 0 1
135 8 3 0.033922 41.3523 9.75796 3.15639 -1 0 1
136 8 3 0.046089 42.7491 9.0275 5.05061 -1 0 1
137 8 3 0.046089 42.4114 7.35999 4.75153 -1 0 1
138 8 4 0.121889 -3.62014 7.26775 2.91525 0 0 1
139 8 4 0.121889 -2.08078 9.06538 2.21522 0 0 1
140 8 3 0.046089 -3.04642 10.5855 4.42427 0 0 1
141 8 3 0.046089 -4.13419 11.0693 3.13779 0 0 1
142 8 3 0.033922 -2.17435 12.5204 3.2349 0 0 1
143 8 3 0.033922 -1.03969 11.2346 3.0121 0 0 1
144 8 3 0.033922 -2.24542 11.6103 1.71874 0 0 1
145 9 1 -0.091211 38.2914 6.39876 1.72494 -1 1 1
146 9 1 -0.050311 38.5582 5.34613 2.71184 -1 1 1
147 9 2 -0.174311 37.2735 4.82692 3.27758 -1 1 1
148 9 2 -0.174311 36.7468 3.50809 3.35153 -1 1 1
149 9 1 -0.050311 37.3191 2.30095 2.76164 -1 1 1
150 9 1 -0.091211 37.5263 2.3786 1.22954 -1 1 1
151 9 3 0.033922 37.6424 5.906 0.995144 -1 1 1
152 9 3 0.033922 39.1701 6.74768 1.1747 -1 1 1
153 9 3 0.033922 37.8354 7.27221 2.20012 -1 1 1
154 9 3 0.046089 39.091 4.49262 2.28258 -1 1 1
155 9 3 0.046089 39.1629 5.7531 3.52754 -1 1 1
156 9 4 0.121889 36.6003 5.52556 3.76408 -1 1 1
157 9 4 0.121889 35.7468 3.39733 3.75858 -1 1 1
158 9 3 0.046089 36.6284 1.48015 2.97571 -1 1 1
159 9 3 0.046089 38.2804 2.03228 3.20928 -1 1 1
160 9 3 0.033922 38.3399 3.05297 0.946799 -1 1 1
161 9 3 0.033922 37.7042 1.38936 0.797801 -1 1 1
162 9 3 0.033922 36.6109 2.77729 0.782615 -1 1 1
163 10 1 -0.091211 3.69552 10.5012 9.2565 0 0 1
164 10 1 -0.050311 5.09256 9.98909 9.30216 0 0 1
165 10 2 -0.174311 6.04879 11.1445 9.29202 0 0 1
166 10 2 -0.174311 7.29718 11.1359 9.87175 0 0 1
167 10 1 -0.050311 7.99519 10.0081 10.535 0 0 1
168 10 1 -0.091211 8.98563 10.4848 11.6458 0 0 1
169 10 3 0.033922 3.67701 11.4205 9.84914 0 0 1
170 10 3 0.033922 3.05613 9.78308 9.77813 0 0 1
171 10 3 0.033922 3.44375 10.7031 8.21126 0 0 1
172 10 3 0.046089 5.24866 9.36748 10.1887 0 0 1
173 10 3 0.046089 5.30513 9.35935 8.43332 0 0 1
174 10 4 0.121889 5.70697 12.0835 8.86831 0 0 1
175 10 4 0.121889 7.8401 12.0721 9.78891 0 0 1
176 10 3 0.046089 8.67356 9.37627 9.95429 0 0 1
177 10 3 0.046089 7.32038 9.30322 11.0293 0 0 1
178 10 3 0.033922 9.97194 10.7519 11.2553 0 0 1
179 10 3 0.033922 8.63305 11.328 12.2467 0 0 1
180 10 3 0.033922 9.18423 9.71145 12.3935 0 0 1
181 11 1 -0.091211 -2.81403 11.2056 18.5162 0 0 0
182 11 1 -0.050311 -2.58135 12.612 17.842 0 0 0
183 11 2 -0.174311 -3.65211 13.6558 18.2234 0 0 0
184 11 2 -0.174311 -3.60136 14.9326 17.9642 0 0 0
185 11 1 -0.050311 -2.51136 15.6299 17.1954 0 0 0
186 11 1 -0.091211 -3.06666 16.7869 16.45 0 0 0
187 11 3 0.033922 -2.96118 11.377 19.5865 0 0 0
188 11 3 0.033922 -1.98979 10.5064 18.3477 0 0 0
189 11 3 0.033922 -3.727 10.7822 18.0874 0 0 0
190 11 3 0.046089 -1.57 12.9884 18.0212 0 0 0
191 11 3 0.046089 -2.55444 12.4558 16.7596 0 0 0
192 11 4 0.121889 43.014 13.2666 18.7258 -1 0 0
193 11 4 0.121889 -4.4178 15.5524 18.3211 0 0 0
194 11 3 0.046089 -2.02664 14.947 16.4916 0 0 0
195 11 3 0.046089 -1.73226 16.0216 17.8559 0 0 0
196 11 3 0.033922 -3.52407 17.4842 17.158 0 0 0
197 11 3 0.033922 -2.26534 17.2801 15.892 0 0 0
198 11 3 0.033922 -3.80808 16.4206 15.7339 0 0 0
199 12 1 -0.091211 -1.10311 10.9753 7.298 0 0 0
200 12 1 -0.050311 -1.47168 9.67165 8.00562 0 0 0
201 12 2 -0.174311 -0.598102 9.50199 9.16435 0 0 0
202 12 2 -0.174311 -0.752758 8.39575 10.0268 0 0 0
203 12 1 -0.050311 -1.78776 7.32764 9.82553 0 0 0
204 12 1 -0.091211 -1.75096 6.45104 11.0088 0 0 0
205 12 3 0.033922 -0.862577 10.7602 6.25277 0 0 0
206 12 3 0.033922 -0.168488 11.4059 7.66909 0 0 0
207 12 3 0.033922 -1.9563 11.6539 7.38844 0 0 0
208 12 3 0.046089 -2.49857 9.60077 8.37588 0 0 0
209 12 3 0.046089 -1.37567 8.83639 7.3058 0 0 0
210 12 4 0.121889 0.137332 10.2412 9.46556 0 0 0
211 12 4 0.121889 0.0467866 8.27622 10.751 0 0 0
212 12 3 0.046089 -1.60755 6.83858 8.86377 0 0 0
213 12 3 0.046089 -2.77187 7.80263 9.77506 0 0 0
214 12 3 0.033922 -0.784073 6.13071 11.4078 0 0 0
215 12 3 0.033922 -2.19413 7.0285 11.8254 0 0 0
216 12 3 0.033922 -2.39179 5.56793 10.9309 0 0 0
217 13 1 -0.091211 0.487009 14.3144 5.03739 0 0 1
218 13 1 -0.050311 -0.841307 15.0857 5.03446 0 0 1
219 13 2 -0.174311 -1.61518 14.6022 6.24633 0 0 1
220 13 2 -0.174311 -1.7506 15.3895 7.44161 0 0 1
221 13 1 -0.050311 -1.31682 16.8735 7.49859 0 0 1
222 13 1 -0.091211 0.105646 17.0271 8.12013 0 0 1
223 13 3 0.033922 0.883509 14.3214 6.0569 0 0 1
224 13 3 0.033922 1.02557 14.8347 4.23997 0 0 1
225 13 3 0.033922 0.34386 13.2973 4.66095 0 0 1
226 13 3 0.046089 -0.561353 16.135 5.16595 0 0 1
227 13 3 0.046089 -1.41013 15.0647 4.1003 0 0 1
228 13 4 0.121889 -1.95938 13.5736 6.28459 0 0 1
229 13 4 0.121889 -2.20119 14.912 8.30591 0 0 1
230 13 3 0.046089 -1.98527 17.5196 8.0751 0 0 1
231 13 3 0.046089 -1.40285 17.3416 6.51364 0 0 1
232 13 3 0.033922 0.74066 16.2915 7.61784 0 0 1
233 13 3 0.033922 0.550362 18.0181 7.99088 0 0 1
234 13 3 0.033922 0.168322 16.8903 9.20366 0 0 1
235 14 1 -0.091211 14.6466 10.3501 5.80831 0 0 0
236 14 1 -0.050311 14.3089 10.2614 7.26185 0 0 0
237 14 2 -0.174311 12.8577 10.3338 7.3922 0 0 0
238 14 2 -0.174311 12.184 10.9443 8.42671 0 0 0
239 14 1 -0.050311 12.6609 11.5072 9.73747 0 0 0
240 14 1 -0.091211 12.4371 12.9619 9.88078 0 0 0
241 14 3 0.033922 14.4047 11.2962 5.31531 0 0 0
242 14 3 0.033922 14.2021 9.49253 5.29494 0 0 0
243 14 3 0.033922 15.7232 10.1759 5.72328 0 0 0
244 14 3 0.046089 14.7033 9.37481 7.7669 0 0 0
245 14 3 0.046089 14.81 11.1191 7.71988 0 0 0
246 14 4 0.121889 12.266 9.84603 6.62408 0 0 0
247 14 4 0.121889 11.1332 11.1032 8.20642 0 0 0
248 14 3 0.046089 13.7225 11.3286 9.93116 0 0 0
249 14 3 0.046089 12.0942 10.9358 10.4784 0 0 0
250 14 3 0.033922 12.6824 13.2656 10.9026 0 0 0
251 14 3 0.033922 13.1595 13.4506 9.22059 0 0 0
252 14 3 0.033922 11.3831 13.1897 9.69679 0 0 0
253 15 1 -0.091211 1.32577 1.53116 3.53904 0 1 1
254 15 1 -0.050311 1.905 20.3917 3.40946 0 0 1
255 15 2 -0.174311 0.813655 19.365 3.15859 0 0 1
256 15 2 -0.174311 1.14172 18.0198 2.84471 0 0 1
257 15 1 -0.050311 2.53967 17.552 2.49991 0 0 1
258 15 1 -0.091211 2.72285 17.3915 0.934332 0 0 1
259 15 3 0.033922 0.748003 1.63159 2.6156 0 1 1
260 15 3 0.033922 2.05715 2.34156 3.60949 0 1 1
261 15 3 0.033922 0.665565 1.58243 4.40976 0 1 1
262 15 3 0.046089 2.49858 20.3977 2.49061 0 0 1
263 15 3 0.046089 2.51241 20.128 4.28019 0 0 1
264 15 4 0.121889 -0.188358 19.5838 3.51368 0 0 1
265 15 4 0.121889 0.405113 17.2238 2.88672 0 0 1
266 15 3 0.046089 2.7145 16.6115 3.03041 0 0 1
267 15 3 0.046089 3.22587 18.3131 2.88269 0 0 1
268 15 3 0.033922 1.98282 16.6745 0.567062 0 0 1
269 15 3 0.033922 2.70236 18.3237 0.362227 0 0 1
270 15 3 0.033922 3.71795 16.9456 0.847485 0 0 1
271 16 1 -0.091211 6.84253 5.64923 6.01663 0 1 0
272 16 1 -0.050311 7.81301 5.74235 4.87287 0 1 0
273 16 2 -0.174311 8.4679 7.09439 5.01284 0 1 0
274 16 2 -0.174311 9.7483 7.37625 4.83328 0 1 0
275 16 1 -0.050311 10.8948 6.50537 4.35544 0 1 0
276 16 1 -0.091211 11.6381 7.28156 3.31285 0 1 0
277 16 3 0.033922 7.35732 5.72471 6.97889 0 1 0
278 16 3 0.033922 6.20582 4.76477 6.11136 0 1 0
279 16 3 0.033922 6.12835 6.4775 5.99375 0 1 0
280 16 3 0.046089 8.49177 4.8875 4.94454 0 1 0
281 16 3 0.046089 7.34335 5.55337 3.90315 0 1 0
282 16 4 0.121889 7.77909 7.85458 5.36732 0 1 0
283 16 4 0.121889 10.0946 8.40287 4.89752 0 1 0
284 16 3 0.046089 10.368 5.66438 3.89519 0 1 0
285 16 3 0.046089 11.5047 6.10807 5.17201 0 1 0
286 16 3 0.033922 12.2829 8.05054 3.74819 0 1 0
287 16 3 0.033922 12.223 6.6359 2.6513 0 1 0
288 16 3 0.033922 10.8559 7.85662 2.80882 0 1 0
289 17 1 -0.091211 6.06412 9.44719 14.4822 0 0 0
290 17 1 -0.050311 6.90212 10.6061 15.1265 0 0 0
291 17 2 -0.174311 6.53321 11.9085 14.4801 0 0 0
292 17 2 -0.174311 6.44802 13.1489 15.181 0 0 0
293 17 1 -0.050311 6.78053 13.2031 16.6204 0 0 0
294 17 1 -0.091211 7.02297 14.682 17.1046 0 0 0
295 17 3 0.033922 6.27366 8.50758 15.0017 0 0 0
296 17 3 0.033922 6.27109 9.27143 13.4225 0 0 0
297 17 3 0.033922 4.99368 9.66175 14.5511 0 0 0
298 17 3 0.046089 6.70981 10.5755 16.2029 0 0 0
299 17 3 0.046089 7.96106 10.4641 14.8918 0 0 0
300 17 4 0.121889 6.19751 11.7884 13.455 0 0 0
301 17 4 0.121889 6.06364 13.9814 14.6002 0 0 0
302 17 3 0.046089 7.73209 12.698 16.8103 0 0 0
303 17 3 0.046089 5.95011 12.7352 17.1572 0 0 0
304 17 3 0.033922 7.68699 15.2394 16.4375 0 0 0
305 17 3 0.033922 6.0578 15.1966 17.088 0 0 0
306 17 3 0.033922 7.49462 14.791 18.0855 0 0 0
307 18 1 -0.091211 35.5805 6.08974 16.2091 -1 0 1
308 18 1 -0.050311 34.9629 7.3348 15.5994 -1 0 1
309 18 2 -0.174311 36.0578 8.30646 15.0674 -1 0 1
310 18 2 -0.174311 36.3029 8.46713 13.7034 -1 0 1
311 18 1 -0.050311 35.5292 7.75796 12.6245 -1 0 1
312 18 1 -0.091211 35.9036 8.06977 11.1994 -1 0 1
313 18 3 0.033922 34.7757 5.39509 16.4667 -1 0 1
314 18 3 0.033922 36.2301 6.2646 17.0718 -1 0 1
315 18 3 0.033922 36.2657 5.67479 15.4642 -1 0 1
316 18 3 0.046089 34.2108 7.01293 14.8731 -1 0 1
317 18 3 0.046089 34.3715 7.88093 16.3401 -1 0 1
318 18 4 0.121889 36.6295 8.90774 15.7672 -1 0 1
319 18 4 0.121889 37.1039 9.11515 13.3621 -1 0 1
320 18 3 0.046089 34.4949 8.10327 12.711 -1 0 1
321 18 3 0.046089 35.5522 6.68244 12.8229 -1 0 1
322 18 3 0.033922 35.4251 9.01374 10.9227 -1 0 1
323 18 3 0.033922 36.9892 8.10534 11.0693 -1 0 1
324 18 3 0.033922 35.4401 7.34059 10.5285 -1 0 1
325 19 1 -0.091211 8.27243 11.2793 6.67119 0 0 0
326 19 1 -0.050311 8.71468 11.6666 5.23691 0 0 0
327 19 2 -0.174311 9.85012 12.6837 5.23433 0 0 0
328 19 2 -0.174311 10.7111 13.0291 4.15885 0 0 0
329 19 1 -0.050311 10.6358 12.3738 2.79589 0 0 0
330 19 1 -0.091211 10.8325 13.3989 1.68177 0 0 0
331 19 3 0.033922 7.33364 10.7253 6.57937 0 0 0
332 19 3 0.033922 8.12723 12.1714 7.2873 0 0 0
333 19 3 0.033922 9.0077 10.5868 7.09124 0 0 0
334 19 3 0.046089 9.00082 10.8184 4.60817 0 0 0
335 19 3 0.046089 7.882 12.2178 4.79031 0 0 0
336 19 4 0.121889 10.0639 13.1208 6.20451 0 0 0
337 19 4 0.121889 11.4764 13.7873 4.29096 0 0 0
338 19 3 0.046089 9.70376 11.8337 2.60542 0 0 0
339 19 3 0.046089 11.4128 11.6046 2.82945 0 0 0
340 19 3 0.033922 11.8143 13.8803 1.71331 0 0 0
341 19 3 0.033922 10.8384 12.8646 0.72724 0 0 0
342 19 3 0.033922 10.0389 14.1503 1.63454 0 0 0
343 20 1 -0.091211 8.29926 0.831932 9.02509 0 0 0
344 20 1 -0.050311 9.3226 1.06502 7.93769 0 0 0
345 20 2 -0.174311 9.21961 20.2567 6.88158 0 -1 0
346 20 2 -0.174311 10.0731 20.2879 5.82224 0 -1 0
347 20 1 -0.050311 11.1228 1.04924 5.49665 0 0 0
348 20 1 -0.091211 11.7781 0.8405 4.15318 0 0 0
349 20 3 0.033922 8.19138 20.0476 9.33496 0 -1 0
350 20 3 0.033922 7.29081 1.14267 8.73679 0 0 0
351 20 3 0.033922 8.59198 1.45024 9.8787 0 0 0
352 20 3 0.046089 9.1179 2.00386 7.4149 0 0 0
353 20 3 0.046089 10.3281 1.12456 8.36428 0 0 0
354 20 4 0.121889 8.44743 19.4941 6.8891 0 -1 0
355 20 4 0.121889 9.91236 19.5178 5.07446 0 -1 0
356 20 3 0.046089 11.9468 1.09884 6.21451 0 0 0
357 20 3 0.046089 10.62 2.01906 5.44013 0 0 0
358 20 3 0.033922 12.2986 20.1384 4.112 0 -1 0
359 20 3 0.033922 10.8898 0.743044 3.52216 0 0 0
360 20 3 0.033922 12.4138 1.67259 3.83691 0 0 0
361 21 1 -0.091211 -1.89253 1.34717 0.974129 0 0 1
362 21 1 -0.050311 -2.96642 20.7073 0.378852 0 -1 1
363 21 2 -0.174311 -2.4081 20.0634 20.8469 0 -1 0
364 21 2 -0.174311 -2.08873 18.749 20.73 0 -1 0
365 21 1 -0.050311 -2.08559 17.7729 0.105626 0 -1 1
366 21 1 -0.091211 -1.20756 16.5653 21.5065 0 -1 0
367 21 3 0.033922 -0.846368 21.292 0.915788 0 -1 1
368 21 3 0.033922 -2.09149 1.64751 2.00702 0 0 1
369 21 3 0.033922 -1.96837 2.26841 0.38916 0 0 1
370 21 3 0.046089 -3.2604 20.0246 1.18145 0 -1 1
371 21 3 0.046089 -3.8819 1.01168 0.176456 0 0 1
372 21 4 0.121889 -2.30878 20.709 19.9801 0 -1 0
373 21 4 0.121889 -1.74082 18.5157 19.7287 0 -1 0
374 21 3 0.046089 -3.10062 17.4495 0.354097 0 -1 1
375 21 3 0.046089 -1.68554 18.2964 0.978866 0 -1 1
376 21 3 0.033922 -0.202317 16.9309 21.2776 0 -1 0
377 21 3 0.033922 -1.17291 15.7499 0.507956 0 -1 1
378 21 3 0.033922 -1.5614 16.1996 20.5382 0 -1 0
379 22 1 -0.091211 5.06886 17.8791 13.2139 0 -1 0
380 22 1 -0.050311 5.26889 18.5212 14.5781 0 -1 0
381 22 2 -0.174311 4.50363 17.7498 15.6192 0 -1 0
382 22 2 -0.174311 4.66166 17.8364 16.9517 0 -1 0
383 22 1 -0.050311 5.72668 18.7712 17.5577 0 -1 0
384 22 1 -0.091211 5.68426 18.7074 19.0856 0 -1 0
385 22 3 0.033922 5.72506 18.3211 12.4585 0 -1 0
386 22 3 0.033922 4.0272 17.9867 12.8976 0 -1 0
387 22 3 0.033922 5.29298 16.8137 13.3204 0 -1 0
388 22 3 0.046089 6.33794 18.6236 14.786 0 -1 0
389 22 3 0.046089 4.8621 19.5366 14.5772 0 -1 0
390 22 4 0.121889 3.71063 17.1064 15.2516 0 -1 0
391 22 4 0.121889 4.07314 17.2736 17.6693 0 -1 0
392 22 3 0.046089 5.54303 19.8144 17.2846 0 -1 0
393 22 3 0.046089 6.74598 18.6325 17.1857 0 -1 0
394 22 3 0.033922 4.65973 18.9343 19.3946 0 -1 0
395 22 3 0.033922 5.92133 17.7312 19.5185 0 -1 0
396 22 3 0.033922 6.37702 19.4174 19.5468 0 -1 0
397 23 1 -0.091211 -0.634772 5.55195 2.50643 0 0 0
398 23 1 -0.050311 0.383948 5.90179 3.60822 0 0 0
399 23 2 -0.174311 0.0653557 7.20883 4.2806 0 0 0
400 23 2 -0.174311 0.237209 8.42955 3.66868 0 0 0
401 23 1 -0.050311 1.06273 8.61974 2.40079 0 0 0
402 23 1 -0.091211 1.56391 10.0446 2.10556 0 0 0
403 23 3 0.033922 -0.468647 4.4972 2.26867 0 0 0
404 23 3 0.033922 -0.472637 6.10246 1.57514 0 0 0
405 23 3 0.033922 -1.66654 5.67859 2.84709 0 0 0
406 23 3 0.046089 0.35563 5.14951 4.4019 0 0 0
407 23 3 0.046089 1.39005 5.86949 3.18003 0 0 0
408 23 4 0.121889 -0.515358 7.31729 5.19112 0 0 0
409 23 4 0.121889 -0.170562 9.33699 4.10261 0 0 0
410 23 3 0.046089 0.45898 8.3094 1.54299 0 0 0
411 23 3 0.046089 1.99754 8.05748 2.4822 0 0 0
412 23 3 0.033922 2.13071 10.3866 2.97645 0 0 0
413 23 3 0.033922 2.10167 10.0477 1.15295 0 0 0
414 23 3 0.033922 0.709336 10.7039 1.92742 0 0 0
415 24 1 -0.091211 6.09728 14.9425 0.282801 0 0 0
416 24 1 -0.050311 6.22622 14.1714 1.64488 0 0 0
417 24 2 -0.174311 4.85504 13.8142 2.20745 0 0 0
418 24 2 -0.174311 4.44678 13.9503 3.56583 0 0 0
419 24 1 -0.050311 5.30295 14.5831 4.64054 0 0 0
420 24 1 -0.091211 4.50052 14.5145 5.94157 0 0 0
421 24 3 0.033922 5.54226 14.3611 21.2678 0 0 -1
422 24 3 0.033922 7.05886 15.2963 -0.100383 0 0 0
423 24 3 0.033922 5.46348 15.8013 0.52238 0 0 0
424 24 3 0.046089 6.88558 13.3253 1.43031 0 0 0
425 24 3 0.046089 6.83732 14.7316 2.35856 0 0 0
426 24 4 0.121889 4.24176 13.1414 1.6165 0 0 0
427 24 4 0.121889 3.48294 13.551 3.86508 0 0 0
428 24 3 0.046089 5.59875 15.5556 4.2363 0 0 0
429 24 3 0.046089 6.24666 14.0363 4.72405 0 0 0
430 24 3 0.033922 3.6415 15.1917 5.95044 0 0 0
431 24 3 0.033922 4.04501 13.5513 6.18935 0 0 0
432 24 3 0.033922 5.18241 14.7517 6.76341 0 0 0
433 25 1 -0.091211 4.57761 6.8051 11.8312 0 0 0
434 25 1 -0.050311 3.66955 6.98178 13.0396 0 0 0
435 25 2 -0.174311 2.18148 6.73117 12.6719 0 0 0
436 25 2 -0.174311 1.23837 6.34128 13.629 0 0 0
437 25 1 -0.050311 1.58954 6.12626 15.0696 0 0 0
438 25 1 -0.091211 0.370811 5.82964 15.9563 0 0 0
439 25 3 0.033922 4.42424 5.84649 11.327 0 0 0
440 25 3 0.033922 5.63935 6.75346 12.0894 0 0 0
441 25 3 0.033922 4.30716 7.61302 11.1451 0 0 0
442 25 3 0.046089 3.97206 6.32743 13.8624 0 0 0
443 25 3 0.046089 3.75263 7.9443 13.5527 0 0 0
444 25 4 0.121889 1.94717 6.87107 11.6213 0 0 0
445 25 4 0.121889 0.175135 6.30693 13.4136 0 0 0
446 25 3 0.046089 2.19868 6.97371 15.3973 0 0 0
447 25 3 0.046089 2.30522 5.30802 14.9475 0 0 0
448 25 3 0.033922 -0.143626 4.89342 15.7207 0 0 0
449 25 3 0.033922 0.640278 5.89992 17.0141 0 0 0
450 25 3 0.033922 -0.327804 6.6523 15.7779 0 0 0
451 26 1 -0.091211 2.71549 14.375 18.0974 0 -1 0
452 26 1 -0.050311 3.61628 14.4441 19.4227 0 -1 0
453 26 2 -0.174311 3.74162 12.9643 19.7919 0 -1 0
454 26 2 -0.174311 2.73041 12.3036 20.4828 0 -1 0
455 26 1 -0.050311 1.48503 12.9197 21.1125 0 -1 0
456 26 1 -0.091211 0.13903 12.3579 20.665 0 -1 0
457 26 3 0.033922 3.08894 13.5787 17.4471 0 -1 0
458 26 3 0.033922 2.81589 15.3117 17.5414 0 -1 0
459 26 3 0.033922 1.65284 14.1913 18.2809 0 -1 0
460 26 3 0.046089 4.57272 14.9263 19.2004 0 -1 0
461 26 3 0.046089 3.11917 15.0394 20.1941 0 -1 0
462 26 4 0.121889 4.58939 12.3729 19.4609 0 -1 0
463 26 4 0.121889 2.80542 11.2328 20.6435 0 -1 0
464 26 3 0.046089 1.48388 14.0066 20.9889 0 -1 0
465 26 3 0.046089 1.52752 12.6386 0.441806 0 -1 1
466 26 3 0.033922 -0.62177 12.6079 21.4102 0 -1 0
467 26 3 0.033922 -0.0892916 12.6612 19.6391 0 -1 0
468 26 3 0.033922 0.0768678 11.266 20.6427 0 -1 0
469 27 1 -0.091211 14.6543 14.7523 0.267696 0 0 0
470 27 1 -0.050311 15.0962 14.3965 20.6173 0 0 -1
471 27 2 -0.174311 15.7597 15.525 19.9012 0 0 -1
472 27 2 -0.174311 17.0047 15.4375 19.3577 0 0 -1
473 27 1 -0.050311 17.8639 14.2652 19.5438 0 0 -1
474 27 1 -0.091211 19.2444 14.6359 19.0419 0 0 -1
475 27 3 0.033922 13.7827 14.234 0.677985 0 0 0
476 27 3 0.033922 14.3643 15.806 0.315872 0 0 0
477 27 3 0.033922 15.4907 14.6595 0.966613 0 0 0
478 27 3 0.046089 15.7964 13.5689 20.7637 0 0 -1
479 27 3 0.046089 14.2745 14.0871 19.9648 0 0 -1
480 27 4 0.121889 15.2692 16.4796 19.7391 0 0 -1
481 27 4 0.121889 17.3321 16.4087 19.0005 0 0 -1
482 27 3 0.046089 17.4747 13.4059 18.9901 0 0 -1
483 27 3 0.046089 17.9463 13.8913 20.5685 0 0 -1
484 27 3 0.033922 19.6088 15.5201 19.5731 0 0 -1
485 27 3 0.033922 20 13.8622 19.2063 0 0 -1
486 27 3 0.033922 19.2548 14.9802 18.0037 0 0 -1
487 28 1 -0.091211 10.8979 15.3237 19.9747 0 -1 -1
488 28 1 -0.050311 10.9911 16.7627 20.4526 0 -1 -1
489 28 2 -0.174311 10.808 16.7759 0.256023 0 -1 0
490 28 2 -0.174311 9.74459 17.167 1.06208 0 -1 0
491 28 1 -0.050311 8.58012 18.0526 0.573645 0 -1 0
492 28 1 -0.091211 7.73661 18.3704 1.78096 0 -1 0
493 28 3 0.033922 11.0955 15.2392 18.9021 0 -1 -1
494 28 3 0.033922 9.95397 14.8607 20.2767 0 -1 -1
495 28 3 0.033922 11.7723 14.7623 20.3166 0 -1 -1
496 28 3 0.046089 11.9812 17.1253 20.1614 0 -1 -1
497 28 3 0.046089 10.2375 17.3514 19.9215 0 -1 -1
498 28 4 0.121889 11.666 16.3374 0.7556 0 -1 0
499 28 4 0.121889 9.84918 16.9948 2.12859 0 -1 0
500 28 3 0.046089 7.97725 17.5988 -0.218358 0 -1 0
501 28 3 0.046089 8.85504 19.004 0.108999 0 -1 0
502 28 3 0.033922 6.74769 18.6998 1.449 0 -1 0
503 28 3 0.033922 7.60931 17.575 2.5211 0 -1 0
504 28 3 0.033922 8.25136 19.1131 2.39749 0 -1 0
505 29 1 -0.091211 5.5067 10.0444 3.2332 0 0 0
506 29 1 -0.050311 5.0429 8.75963 2.58519 0 0 0
507 29 2 -0.174311 6.13269 7.89994 2.08992 0 0 0
508 29 2 -0.174311 5.80578 6.59153 1.70081 0 0 0
509 29 1 -0.050311 4.45212 5.87089 1.98024 0 0 0
510 29 1 -0.091211 4.39289 5.29754 3.38041 0 0 0
511 29 3 0.033922 6.0399 10.7052 2.54358 0 0 0
512 29 3 0.033922 6.27511 9.73164 3.94622 0 0 0
513 29 3 0.033922 4.73711 10.6199 3.7558 0 0 0
514 29 3 0.046089 4.37121 8.26091 3.29 0 0 0
515 29 3 0.046089 4.43687 9.09137 1.73706 0 0 0
516 29 4 0.121889 7.09819 8.31567 1.81973 0 0 0
517 29 4 0.121889 6.5845 5.99857 1.23175 0 0 0
518 29 3 0.046089 4.41433 5.04812 1.26035 0 0 0
519 29 3 0.046089 3.55883 6.48228 1.82253 0 0 0
520 29 3 0.033922 5.22779 4.60871 3.53882 0 0 0
521 29 3 0.033922 4.45673 6.05099 4.17089 0 0 0
522 29 3 0.033922 3.47839 4.70176 3.45355 0 0 0
523 30 1 -0.091211 2.58812 7.15398 7.71392 0 1 1
524 30 1 -0.050311 3.35501 5.90304 8.08548 0 1 1
525 30 2 -0.174311 3.03662 4.93383 7.01742 0 1 1
526 30 2 -0.174311 2.41498 3.6795 7.18428 0 1 1
527 30 1 -0.050311 1.90236 3.10495 8.50648 0 1 1
528 30 1 -0.091211 2.57257 1.72312 8.48688 0 1 1
529 30 3 0.033922 1.51811 6.92667 7.71818 0 1 1
530 30 3 0.033922 2.92535 7.51265 6.73704 0 1 1
531 30 3 0.033922 2.64514 7.87149 8.53767 0 1 1
532 30 3 0.046089 4.41416 6.15042 7.96875 0 1 1
533 30 3 0.046089 3.11867 5.56205 9.09766 0 1 1
534 30 4 0.121889 3.45709 5.17547 6.04641 0 1 1
535 30 4 0.121889 2.27816 3.081 6.28923 0 1 1
536 30 3 0.046089 0.832359 2.87988 8.4739 0 1 1
537 30 3 0.046089 2.26353 3.62396 9.39913 0 1 1
538 30 3 0.033922 2.46703 1.24656 9.46587 0 1 1
539 30 3 0.033922 1.95131 1.10907 7.82839 0 1 1
540 30 3 0.033922 3.59775 1.62432 8.11827 0 1 1
541 31 1 -0.091211 20.8021 0.913219 16.5973 0 1 0
542 31 1 -0.050311 21.1014 20.5053 15.2833 0 0 0
543 31 2 -0.174311 21.9622 19.2775 15.5597 0 0 0
544 31 2 -0.174311 22.5599 18.394 14.6948 0 0 0
545 31 1 -0.050311 22.3533 18.3643 13.2094 0 0 0
546 31 1 -0.091211 23.738 18.4797 12.5344 0 0 0
547 31 3 0.033922 20.2592 20.4672 17.2335 0 0 0
548 31 3 0.033922 20.2906 1.87882 16.5462 0 1 0
549 31 3 0.033922 21.7618 1.06412 17.1002 0 1 0
550 31 3 0.046089 20.1972 20.1307 14.7947 0 0 0
551 31 3 0.046089 21.6506 0.907451 14.6067 0 1 0
552 31 4 0.121889 22.2047 19.1638 16.6115 0 0 0
553 31 4 0.121889 23.0598 17.5413 15.1432 0 0 0
554 31 3 0.046089 21.6522 19.1486 12.9098 0 0 0
555 31 3 0.046089 21.8849 17.4132 12.94 0 0 0
556 31 3 0.033922 24.0451 19.5277 12.5977 0 0 0
557 31 3 0.033922 24.5374 17.7934 12.8287 0 0 0
558 31 3 0.033922 23.6429 18.1775 11.4874 0 0 0
559 32 1 -0.091211 17.231 2.25014 4.49324 0 1 0
560 32 1 -0.050311 16.8057 2.46045 3.04285 0 1 0
561 32 2 -0.174311 17.1512 3.88475 2.58565 0 1 0
562 32 2 -0.174311 16.2791 4.955 2.73593 0 1 0
563 32 1 -0.050311 14.9541 4.9699 3.51649 0 1 0
564 32 1 -0.091211 14.8532 6.10801 4.48549 0 1 0
565 32 3 0.033922 16.8995 1.31081 4.94534 0 1 0
566 32 3 0.033922 16.7688 3.05999 5.0652 0 1 0
567 32 3 0.033922 18.3117 2.33511 4.6396 0 1 0
568 32 3 0.046089 17.4285 1.80556 2.4266 0 1 0
569 32 3 0.046089 15.7375 2.2307 2.98922 0 1 0
570 32 4 0.121889 18.0184 4.17374 2.00046 0 1 0
571 32 4 0.121889 16.6256 5.93466 2.42262 0 1 0
572 32 3 0.046089 14.9641 3.99931 4.02096 0 1 0
573 32 3 0.046089 14.0559 4.95526 2.89223 0 1 0
574 32 3 0.033922 13.8974 6.02408 5.01091 0 1 0
575 32 3 0.033922 15.6819 6.05119 5.19725 0 1 0
576 32 3 0.033922 14.8115 7.13581 4.1133 0 1 0
577 33 1 -0.091211 13.527 8.31269 14.3704 0 0 0
578 33 1 -0.050311 13.2363 9.09224 13.0778 0 0 0
579 33 2 -0.174311 14.5424 9.56208 12.4674 0 0 0
580 33 2 -0.174311 15.0606 10.8332 12.6564 0 0 0
581 33 1 -0.050311 14.4331 11.8347 13.5984 0 0 0
582 33 1 -0.091211 15.4191 12.7355 14.3115 0 0 0
583 33 3 0.033922 14.2824 8.89804 14.9027 0 0 0
584 33 3 0.033922 14.0536 7.38437 14.1305 0 0 0
585 33 3 0.033922 12.7132 8.18154 15.0895 0 0 0
586 33 3 0.046089 12.7066 8.37373 12.4455 0 0 0
587 33 3 0.046089 12.5935 9.94185 13.3258 0 0 0
588 33 4 0.121889 15.0162 8.85846 11.7903 0 0 0
589 33 4 0.121889 15.9812 11.0404 12.1201 0 0 0
590 33 3 0.046089 13.893 11.3707 14.4289 0 0 0
591 33 3 0.046089 13.8652 12.5339 12.9777 0 0 0
592 33 3 0.033922 16.1166 12.1652 14.9318 0 0 0
593 33 3 0.033922 16.1544 13.1926 13.6428 0 0 0
594 33 3 0.033922 14.911 13.4637 14.9504 0 0 0
595 34 1 -0.091211 15.5562 2.07427 7.65443 0 1 0
596 34 1 -0.050311 14.3014 1.95754 8.61356 0 1 0
597 34 2 -0.174311 14.604 1.81343 10.0691 0 1 0
598 34 2 -0.174311 13.611 1.53296 10.9123 0 1 0
599 34 1 -0.050311 12.2095 1.40599 10.489 0 1 0
600 34 1 -0.091211 11.2718 1.34278 11.685 0 1 0
601 34 3 0.033922 16.2203 2.84168 8.06259 0 1 0
602 34 3 0.033922 15.2898 2.35894 6.63233 0 1 0
603 34 3 0.033922 16.0525 1.10577 7.54387 0 1 0
604 34 3 0.046089 13.6923 2.86332 8.54151 0 1 0
605 34 3 0.046089 13.5897 1.20031 8.27189 0 1 0
606 34 4 0.121889 15.6466 1.72831 10.3586 0 1 0
607 34 4 0.121889 13.9771 1.13178 11.852 0 1 0
608 34 3 0.046089 12.0078 20.8218 9.82209 0 0 0
609 34 3 0.046089 11.8924 2.36032 10.0585 0 1 0
610 34 3 0.033922 11.4451 20.741 12.3372 0 0 0
611 34 3 0.033922 11.6117 2.13859 12.3542 0 1 0
612 34 3 0.033922 10.2123 1.37708 11.4152 0 1 0
613 35 1 -0.091211 37.0239 8.0482 19.1927 -1 0 0
614 35 1 -0.050311 36.7219 9.1782 20.1291 -1 0 0
615 35 2 -0.174311 37.1916 10.4944 19.6766 -1 0 0
616 35 2 -0.174311 37.6765 11.5299 20.4939 -1 0 0