ITEM: TIMESTEP
32700
ITEM: NUMBER OF ATOMS
1800
ITEM: BOX BOUNDS pp pp pp
-4.8920104536719933e-01 3.9297216545367306e+01
-8.7738042372505376e-02 2.1696393542372714e+01
-1.3923171900298339e+00 2.2646050690029874e+01
ITEM: ATOMS id mol type q x y z ix iy iz
1 1 1 -0.091211 6.2305 18.8554 7.9105 0 -1 0
2 1 1 -0.050311 5.56636 19.2004 9.28122 0 -1 0
3 1 2 -0.174311 4.2395 19.856 9.17425 0 -1 0
4 1 2 -0.174311 3.16247 19.7349 10.0714 0 -1 0
5 1 1 -0.050311 3.18892 18.7994 11.2794 0 -1 0
6 1 1 -0.091211 1.85951 18.6925 12.0558 0 -1 0
7 1 3 0.033922 5.50718 18.2574 7.34838 0 -1 0
8 1 3 0.033922 7.19806 18.3876 8.11488 0 -1 0
9 1 3 0.033922 6.42804 19.7989 7.39347 0 -1 0
10 1 3 0.046089 5.53169 18.3096 9.91523 0 -1 0
11 1 3 0.046089 6.15695 20.0008 9.73632 0 -1 0
12 1 4 0.121889 4.17981 20.5541 8.34534 0 -1 0
13 1 4 0.121889 2.23657 20.2831 9.92889 0 -1 0
14 1 3 0.046089 3.86327 19.2302 12.0253 0 -1 0
15 1 3 0.046089 3.50221 17.8053 10.9473 0 -1 0
16 1 3 0.033922 2.07073 17.9979 12.874 0 -1 0
17 1 3 0.033922 1.37471 19.6177 12.3808 0 -1 0
18 1 3 0.033922 1.18339 18.1822 11.3636 0 -1 0
19 2 1 -0.091211 10.6519 0.976477 17.8904 0 0 0
20 2 1 -0.050311 11.0132 2.10608 16.9418 0 0 0
21 2 2 -0.174311 9.85117 3.12263 16.9395 0 0 0
22 2 2 -0.174311 9.87404 4.30748 16.2318 0 0 0
23 2 1 -0.050311 10.9481 4.91978 15.3781 0 0 0
24 2 1 -0.091211 11.3515 6.26172 16.0554 0 0 0
25 2 3 0.033922 9.68298 0.519544 17.6685 0 0 0
26 2 3 0.033922 10.5326 1.40598 18.8893 0 0 0
27 2 3 0.033922 11.4023 0.194471 17.7419 0 0 0
28 2 3 0.046089 11.8919 2.68626 17.2385 0 0 0
29 2 3 0.046089 11.1418 1.79982 15.8995 0 0 0
30 2 4 0.121889 8.86346 2.77996 17.2313 0 0 0
31 2 4 0.121889 8.88173 4.71387 16.0635 0 0 0
32 2 3 0.046089 10.6033 5.06049 14.3495 0 0 0
33 2 3 0.046089 11.828 4.26982 15.38 0 0 0
34 2 3 0.033922 10.4333 6.84756 16.1585 0 0 0
35 2 3 0.033922 11.7784 6.12539 17.0533 0 0 0
36 2 3 0.033922 11.882 6.85791 15.3073 0 0 0
37 3 1 -0.091211 5.00059 7.66589 8.73324 0 0 0
38 3 1 -0.050311 3.74514 7.76935 9.47662 0 0 0
39 3 2 -0.174311 4.00339 8.30209 10.8559 0 0 0
40 3 2 -0.174311 3.67136 7.65424 12.0203 0 0 0
41 3 1 -0.050311 2.78537 6.48596 12.1619 0 0 0
42 3 1 -0.091211 3.56101 5.18741 12.3989 0 0 0
43 3 3 0.033922 5.54466 8.61481 8.71915 0 0 0
44 3 3 0.033922 4.8162 7.43404 7.68019 0 0 0
45 3 3 0.033922 5.63888 6.88418 9.15538 0 0 0
46 3 3 0.046089 3.03944 8.39634 8.92382 0 0 0
47 3 3 0.046089 3.18731 6.82969 9.42637 0 0 0
48 3 4 0.121889 4.55877 9.23357 10.8116 0 0 0
49 3 4 0.121889 4.03845 8.09781 12.9404 0 0 0
50 3 3 0.046089 2.16316 6.38146 11.2682 0 0 0
51 3 3 0.046089 2.10815 6.6139 13.0115 0 0 0
52 3 3 0.033922 2.92614 4.42441 12.8587 0 0 0
53 3 3 0.033922 3.86153 4.84008 11.4061 0 0 0
54 3 3 0.033922 4.46357 5.32371 13.0019 0 0 0
55 4 1 -0.091211 1.09709 21.489 5.43397 0 -1 0
56 4 1 -0.050311 2.22468 20.6243 4.91854 0 -1 0
57 4 2 -0.174311 2.22393 19.3849 5.73922 0 -1 0
58 4 2 -0.174311 1.9181 18.109 5.18051 0 -1 0
59 4 1 -0.050311 1.34331 17.8398 3.80046 0 -1 0
60 4 1 -0.091211 -0.123168 17.4426 3.94046 0 -1 0
61 4 3 0.033922 0.121161 21.0063 5.54058 0 -1 0
62 4 3 0.033922 1.07648 0.510902 4.69469 0 0 0
63 4 3 0.033922 1.39604 0.102834 6.40809 0 0 0
64 4 3 0.046089 2.15319 20.392 3.85198 0 -1 0
65 4 3 0.046089 3.17951 21.1434 5.04347 0 -1 0
66 4 4 0.121889 2.64553 19.4219 6.7387 0 -1 0
67 4 4 0.121889 2.27689 17.3211 5.83502 0 -1 0
68 4 3 0.046089 1.84515 16.961 3.38492 0 -1 0
69 4 3 0.046089 1.37335 18.685 3.1067 0 -1 0
70 4 3 0.033922 39.1627 17.3682 2.9706 -1 -1 0
71 4 3 0.033922 -0.248348 16.4988 4.47915 0 -1 0
72 4 3 0.033922 39.0975 18.1628 4.53872 -1 -1 0
73 5 1 -0.091211 37.1639 3.25831 4.17252 -1 0 0
74 5 1 -0.050311 36.575 4.41464 3.44297 -1 0 0
75 5 2 -0.174311 37.5976 5.2766 2.8436 -1 0 0
76 5 2 -0.174311 37.5834 6.67826 2.81213 -1 0 0
77 5 1 -0.050311 36.5348 7.56014 3.54519 -1 0 0
78 5 1 -0.091211 36.8553 7.76769 5.05013 -1 0 0
79 5 3 0.033922 36.3139 2.66233 4.51741 -1 0 0
80 5 3 0.033922 37.7961 3.63138 4.98357 -1 0 0
81 5 3 0.033922 37.7342 2.58251 3.52847 -1 0 0
82 5 3 0.046089 35.9173 3.97116 2.68964 -1 0 0
83 5 3 0.046089 36.0082 5.03249 4.14559 -1 0 0
84 5 4 0.121889 38.5181 4.84525 2.46316 -1 0 0
85 5 4 0.121889 38.4584 7.12197 2.34779 -1 0 0
86 5 3 0.046089 35.5442 7.09796 3.50164 -1 0 0
87 5 3 0.046089 36.3451 8.53498 3.08657 -1 0 0
88 5 3 0.033922 36.0875 8.38597 5.5244 -1 0 0
89 5 3 0.033922 36.8553 6.82827 5.61059 -1 0 0
90 5 3 0.033922 37.8159 8.2817 5.14881 -1 0 0
91 6 1 -0.091211 9.67671 21.6322 21.8977 0 -1 0
92 6 1 -0.050311 8.5546 0.801448 21.5601 0 0 0
93 6 2 -0.174311 7.59275 0.836186 -1.29651 0 0 1
94 6 2 -0.174311 6.17231 0.806838 -1.26773 0 0 1
95 6 1 -0.050311 5.23945 0.86326 21.6066 0 0 0
96 6 1 -0.091211 4.09166 -0.0849645 21.5625 0 0 0
97 6 3 0.033922 9.27945 20.613 21.885 0 -1 0
98 6 3 0.033922 10.0176 0.0571535 -1.12243 0 0 1
99 6 3 0.033922 10.461 -0.0655901 21.14 0 0 0
100 6 3 0.046089 8.93021 1.82243 21.4454 0 0 0
101 6 3 0.046089 7.96895 0.437045 20.711 0 0 0
102 6 4 0.121889 7.95796 0.816505 -0.274606 0 0 1
103 6 4 0.121889 5.75875 0.809682 -0.264231 0 0 1
104 6 3 0.046089 5.81756 0.924549 20.6799 0 0 0
105 6 3 0.046089 4.83931 1.8552 21.836 0 0 0
106 6 3 0.033922 3.35017 0.190668 20.8069 0 0 0
107 6 3 0.033922 4.37999 20.6659 21.3484 0 -1 0
108 6 3 0.033922 3.63729 21.7919 22.5533 0 -1 0
109 7 1 -0.091211 37.4762 10.0652 8.66227 -1 0 0
110 7 1 -0.050311 36.533 11.1834 8.07849 -1 0 0
111 7 2 -0.174311 36.9304 11.4727 6.66516 -1 0 0
112 7 2 -0.174311 37.8496 12.4918 6.36984 -1 0 0
113 7 1 -0.050311 38.766 13.3245 7.28873 -1 0 0
114 7 1 -0.091211 -0.014723 14.2546 6.53162 0 0 0
115 7 3 0.033922 38.4856 10.2089 8.26561 -1 0 0
116 7 3 0.033922 37.1386 9.05339 8.41937 -1 0 0
117 7 3 0.033922 37.5151 10.1673 9.75071 -1 0 0
118 7 3 0.046089 35.5184 10.7909 8.19393 -1 0 0
119 7 3 0.046089 36.5769 12.0289 8.77117 -1 0 0
120 7 4 0.121889 36.4999 11.0265 5.77428 -1 0 0
121 7 4 0.121889 38.0403 12.783 5.34181 -1 0 0
122 7 3 0.046089 -0.504314 12.6203 7.94786 0 0 0
123 7 3 0.046089 38.1375 14.0259 7.84522 -1 0 0
124 7 3 0.033922 39.131 15.0478 6.13534 -1 0 0
125 7 3 0.033922 0.761208 14.6123 7.21477 0 0 0
126 7 3 0.033922 0.460835 13.7082 5.71188 0 0 0
127 8 1 -0.091211 2.60975 4.81651 15.9818 0 0 0
128 8 1 -0.050311 3.55179 4.95683 17.1618 0 0 0
129 8 2 -0.174311 4.92584 5.45094 16.8667 0 0 0
130 8 2 -0.174311 5.96026 5.58519 17.7486 0 0 0
131 8 1 -0.050311 5.9332 5.29475 19.2186 0 0 0
132 8 1 -0.091211 7.0345 4.27161 19.703 0 0 0
133 8 3 0.033922 2.91163 3.99553 15.3249 0 0 0
134 8 3 0.033922 2.47013 5.77023 15.4646 0 0 0
135 8 3 0.033922 1.62885 4.47874 16.329 0 0 0
136 8 3 0.046089 3.08267 5.73112 17.7759 0 0 0
137 8 3 0.046089 3.57867 4.09416 17.8339 0 0 0
138 8 4 0.121889 5.15726 5.60797 15.818 0 0 0
139 8 4 0.121889 6.91816 5.94914 17.3906 0 0 0
140 8 3 0.046089 4.9544 4.86601 19.4529 0 0 0
141 8 3 0.046089 6.04315 6.18979 19.8379 0 0 0
142 8 3 0.033922 6.89093 3.92653 20.7311 0 0 0
143 8 3 0.033922 7.09389 3.38366 19.0669 0 0 0
144 8 3 0.033922 7.97968 4.81612 19.62 0 0 0
145 9 1 -0.091211 3.43037 8.16734 19.4762 0 0 0
146 9 1 -0.050311 2.76289 9.19508 20.316 0 0 0
147 9 2 -0.174311 1.26923 9.07094 20.4 0 0 0
148 9 2 -0.174311 0.375912 9.98753 20.8213 0 0 0
149 9 1 -0.050311 0.915262 11.242 21.4969 0 0 0
150 9 1 -0.091211 -0.201187 12.2601 21.7135 0 0 0
151 9 3 0.033922 3.31911 7.19197 19.9588 0 0 0
152 9 3 0.033922 4.50486 8.32422 19.3432 0 0 0
153 9 3 0.033922 2.91176 8.11644 18.5144 0 0 0
154 9 3 0.046089 3.15464 9.08309 21.3312 0 0 0
155 9 3 0.046089 2.95482 10.1823 19.8857 0 0 0
156 9 4 0.121889 0.830735 8.08694 20.2676 0 0 0
157 9 4 0.121889 39.1107 9.72058 20.8537 -1 0 0
158 9 3 0.046089 1.6835 11.6477 20.8321 0 0 0
159 9 3 0.046089 1.28625 10.9602 22.4867 0 0 0
160 9 3 0.033922 38.9251 11.9578 22.5317 -1 0 0
161 9 3 0.033922 0.125118 13.2886 21.893 0 0 0
162 9 3 0.033922 38.9567 12.2373 20.8184 -1 0 0
163 10 1 -0.091211 8.70742 8.88764 5.78568 0 0 1
164 10 1 -0.050311 9.96132 8.2318 6.30476 0 0 1
165 10 2 -0.174311 9.93572 6.89346 5.66426 0 0 1
166 10 2 -0.174311 11.069 6.2007 5.25161 0 0 1
167 10 1 -0.050311 12.4667 6.58912 5.43361 0 0 1
168 10 1 -0.091211 13.089 6.67078 4.02105 0 0 1
169 10 3 0.033922 8.73523 9.05263 4.70464 0 0 1
170 10 3 0.033922 8.63812 9.91297 6.16052 0 0 1
171 10 3 0.033922 7.81417 8.30555 6.03069 0 0 1
172 10 3 0.046089 10.8112 8.85044 6.00199 0 0 1
173 10 3 0.046089 9.97975 8.1241 7.39321 0 0 1
174 10 4 0.121889 8.97094 6.39647 5.64496 0 0 1
175 10 4 0.121889 10.9535 5.21451 4.81333 0 0 1
176 10 3 0.046089 12.9159 5.78507 6.02386 0 0 1
177 10 3 0.046089 12.6019 7.5318 5.97182 0 0 1
178 10 3 0.033922 14.173 6.58085 4.13856 0 0 1
179 10 3 0.033922 12.7423 5.87293 3.35781 0 0 1
180 10 3 0.033922 12.797 7.56821 3.46788 0 0 1
181 11 1 -0.091211 36.0395 11.2163 1.91939 -1 0 0
182 11 1 -0.050311 35.0943 11.3475 3.05301 -1 0 0
183 11 2 -0.174311 33.607 11.504 2.70871 -1 0 0
184 11 2 -0.174311 32.6619 11.8743 3.62504 -1 0 0
185 11 1 -0.050311 32.961 12.0452 5.11962 -1 0 0
186 11 1 -0.091211 31.8581 12.7516 5.92072 -1 0 0
187 11 3 0.033922 35.882 10.2526 1.42616 -1 0 0
188 11 3 0.033922 37.085 11.2513 2.23955 -1 0 0
189 11 3 0.033922 35.7008 11.9953 1.23015 -1 0 0
190 11 3 0.046089 35.2558 10.4554 3.66523 -1 0 0
191 11 3 0.046089 35.333 12.2597 3.60757 -1 0 0
192 11 4 0.121889 33.4161 11.3435 1.65237 -1 0 0
193 11 4 0.121889 31.6947 12.1813 3.23982 -1 0 0
194 11 3 0.046089 33.9059 12.5826 5.24283 -1 0 0
195 11 3 0.046089 33.0479 11.0258 5.50683 -1 0 0
196 11 3 0.033922 32.1531 12.7751 6.97384 -1 0 0
197 11 3 0.033922 31.7781 13.7505 5.48202 -1 0 0
198 11 3 0.033922 30.9111 12.206 5.96906 -1 0 0
199 12 1 -0.091211 4.45023 15.3539 6.21718 0 0 0
200 12 1 -0.050311 4.16842 14.4101 5.00147 0 0 0
201 12 2 -0.174311 4.08296 13.0015 5.49575 0 0 0
202 12 2 -0.174311 4.83985 11.9864 5.0787 0 0 0
203 12 1 -0.050311 6.04947 12.1912 4.30822 0 0 0
204 12 1 -0.091211 6.47563 11.0097 3.54266 0 0 0
205 12 3 0.033922 5.51997 15.2107 6.39598 0 0 0
206 12 3 0.033922 3.83387 15.1451 7.09652 0 0 0
207 12 3 0.033922 4.32696 16.4143 5.9786 0 0 0
208 12 3 0.046089 3.18465 14.7401 4.655 0 0 0
209 12 3 0.046089 4.933 14.4746 4.22173 0 0 0
210 12 4 0.121889 3.28726 12.7767 6.19894 0 0 0
211 12 4 0.121889 4.65274 10.9561 5.36419 0 0 0
212 12 3 0.046089 6.85674 12.2545 5.04378 0 0 0
213 12 3 0.046089 6.04398 13.0333 3.61 0 0 0
214 12 3 0.033922 5.78841 10.9207 2.69618 0 0 0
215 12 3 0.033922 7.48961 11.1205 3.14723 0 0 0
216 12 3 0.033922 6.50869 10.0886 4.13185 0 0 0
217 13 1 -0.091211 9.02842 11.1399 9.18574 0 0 0
218 13 1 -0.050311 7.81671 12.1026 9.4089 0 0 0
219 13 2 -0.174311 7.41001 12.0605 10.8627 0 0 0
220 13 2 -0.174311 7.01361 13.0855 11.6428 0 0 0
221 13 1 -0.050311 6.80988 14.5375 11.1066 0 0 0
222 13 1 -0.091211 6.19301 15.582 12.0967 0 0 0
223 13 3 0.033922 8.68637 10.1239 9.40338 0 0 0
224 13 3 0.033922 9.90427 11.4645 9.75523 0 0 0
225 13 3 0.033922 9.34656 11.1476 8.13913 0 0 0
226 13 3 0.046089 7.93517 13.1462 9.10318 0 0 0
227 13 3 0.046089 6.97301 11.8036 8.77996 0 0 0
228 13 4 0.121889 7.5911 11.1173 11.3682 0 0 0
229 13 4 0.121889 6.88718 12.8565 12.6961 0 0 0
230 13 3 0.046089 6.12668 14.4347 10.2585 0 0 0
231 13 3 0.046089 7.77033 14.9684 10.8089 0 0 0
232 13 3 0.033922 5.10467 15.4726 12.0785 0 0 0
233 13 3 0.033922 6.44343 15.3431 13.1344 0 0 0
234 13 3 0.033922 6.55193 16.5717 11.7994 0 0 0
235 14 1 -0.091211 15.9366 6.84994 16.2079 0 0 0
236 14 1 -0.050311 16.3749 8.11145 16.8799 0 0 0
237 14 2 -0.174311 16.7498 7.99419 18.3532 0 0 0
238 14 2 -0.174311 16.0493 8.55179 19.3772 0 0 0
239 14 1 -0.050311 14.6868 9.23409 19.2575 0 0 0
240 14 1 -0.091211 13.5711 8.17469 19.0751 0 0 0
241 14 3 0.033922 14.9488 6.49061 16.5108 0 0 0
242 14 3 0.033922 16.642 6.0338 16.3898 0 0 0
243 14 3 0.033922 15.9726 7.0191 15.1277 0 0 0
244 14 3 0.046089 17.3177 8.33033 16.37 0 0 0
245 14 3 0.046089 15.6609 8.90375 16.6367 0 0 0
246 14 4 0.121889 17.7153 7.53632 18.544 0 0 0
247 14 4 0.121889 16.3717 8.34348 20.3924 0 0 0
248 14 3 0.046089 14.7708 9.85016 18.3575 0 0 0
249 14 3 0.046089 14.5379 9.80455 20.1789 0 0 0
250 14 3 0.033922 12.609 8.693 19.1255 0 0 0
251 14 3 0.033922 13.5478 7.90139 18.0162 0 0 0
252 14 3 0.033922 13.7329 7.21896 19.5821 0 0 0
253 15 1 -0.091211 8.06535 17.7902 19.4475 0 0 0
254 15 1 -0.050311 7.07525 18.7488 20.2458 0 0 0
255 15 2 -0.174311 6.042 19.5401 19.3563 0 0 0
256 15 2 -0.174311 4.8796 19.0551 18.8913 0 0 0
257 15 1 -0.050311 4.48144 17.6528 18.9131 0 0 0
258 15 1 -0.091211 3.24755 17.5775 19.8362 0 0 0
259 15 3 0.033922 7.52969 17.0989 18.7904 0 0 0
260 15 3 0.033922 8.6926 17.2549 20.1663 0 0 0
261 15 3 0.033922 8.83684 18.3233 18.8841 0 0 0
262 15 3 0.046089 6.62753 18.1863 21.0703 0 0 0
263 15 3 0.046089 7.61055 19.4959 20.839 0 0 0
264 15 4 0.121889 6.08697 20.6236 19.311 0 0 0
265 15 4 0.121889 4.26123 19.7821 18.3745 0 0 0
266 15 3 0.046089 5.25713 17.0025 19.3281 0 0 0
267 15 3 0.046089 4.15289 17.32 17.9241 0 0 0
268 15 3 0.033922 2.46738 18.2015 19.3905 0 0 0
269 15 3 0.033922 2.96236 16.5214 19.8339 0 0 0
270 15 3 0.033922 3.4297 17.9914 20.8323 0 0 0
271 16 1 -0.091211 9.25035 18.5602 4.616 0 0 0
272 16 1 -0.050311 8.72291 19.7197 3.77947 0 0 0
273 16 2 -0.174311 7.52232 20.3261 4.44112 0 0 0
274 16 2 -0.174311 7.19846 -0.164913 4.19268 0 1 0
275 16 1 -0.050311 8.06246 0.790739 3.35792 0 1 0
276 16 1 -0.091211 7.1085 1.91992 2.74555 0 1 0
277 16 3 0.033922 9.58275 18.9497 5.58268 0 0 0
278 16 3 0.033922 10.0616 18.043 4.09533 0 0 0
279 16 3 0.033922 8.46669 17.8364 4.85844 0 0 0
280 16 3 0.046089 9.5164 20.4652 3.88574 0 0 0
281 16 3 0.046089 8.5536 19.4032 2.7461 0 0 0
282 16 4 0.121889 6.94781 19.7105 5.12595 0 0 0
283 16 4 0.121889 6.22758 0.215937 4.49354 0 1 0
284 16 3 0.046089 8.54913 0.293224 2.51394 0 1 0
285 16 3 0.046089 8.77241 1.29877 4.01716 0 1 0
286 16 3 0.033922 7.77613 2.54052 2.14071 0 1 0
287 16 3 0.033922 6.28726 1.49539 2.16068 0 1 0
288 16 3 0.033922 6.66014 2.44929 3.59137 0 1 0
289 17 1 -0.091211 13.0368 12.3256 14.5836 0 0 0
290 17 1 -0.050311 11.8554 12.4251 15.4531 0 0 0
291 17 2 -0.174311 10.7823 13.2201 14.78 0 0 0
292 17 2 -0.174311 9.93436 14.1219 15.4588 0 0 0
293 17 1 -0.050311 9.98399 14.3868 16.9625 0 0 0
294 17 1 -0.091211 9.31672 15.7214 17.2099 0 0 0
295 17 3 0.033922 12.8168 11.9437 13.5824 0 0 0
296 17 3 0.033922 13.7439 11.7335 15.172 0 0 0
297 17 3 0.033922 13.4255 13.3391 14.4475 0 0 0
298 17 3 0.046089 11.506 11.4214 15.7123 0 0 0
299 17 3 0.046089 12.1427 12.9194 16.3857 0 0 0
300 17 4 0.121889 10.5802 13.0478 13.7276 0 0 0
301 17 4 0.121889 9.21095 14.7008 14.8934 0 0 0
302 17 3 0.046089 10.9788 14.2972 17.4087 0 0 0
303 17 3 0.046089 9.39953 13.6275 17.4903 0 0 0
304 17 3 0.033922 9.38692 16.0861 18.2388 0 0 0
305 17 3 0.033922 9.86873 16.5057 16.6838 0 0 0
306 17 3 0.033922 8.28025 15.6764 16.8628 0 0 0
307 18 1 -0.091211 1.14983 10.5209 1.62695 0 0 1
308 18 1 -0.050311 2.13025 10.9381 2.7395 0 0 1
309 18 2 -0.174311 3.05439 9.79257 2.99275 0 0 1
310 18 2 -0.174311 2.9677 8.84535 3.96082 0 0 1
311 18 1 -0.050311 1.91553 8.69833 5.01201 0 0 1
312 18 1 -0.091211 0.949879 7.48434 4.66308 0 0 1
313 18 3 0.033922 0.753059 9.52477 1.84353 0 0 1
314 18 3 0.033922 1.68232 10.5002 0.671585 0 0 1
315 18 3 0.033922 0.269203 11.1682 1.57892 0 0 1
316 18 3 0.046089 2.6201 11.7674 2.22074 0 0 1
317 18 3 0.046089 1.67141 11.2632 3.67784 0 0 1
318 18 4 0.121889 3.95681 9.70531 2.39595 0 0 1
319 18 4 0.121889 3.65728 8.00997 4.02938 0 0 1
320 18 3 0.046089 1.31243 9.59827 5.16385 0 0 1
321 18 3 0.046089 2.37674 8.525 5.9887 0 0 1
322 18 3 0.033922 0.338491 7.62474 3.76686 0 0 1
323 18 3 0.033922 1.52615 6.55965 4.56551 0 0 1
324 18 3 0.033922 0.21124 7.34207 5.45737 0 0 1
325 19 1 -0.091211 20.6163 7.82777 22.2761 0 0 -1
326 19 1 -0.050311 20.3531 8.87429 -0.586697 0 0 0
327 19 2 -0.174311 19.2303 9.75224 -1.03817 0 0 0
328 19 2 -0.174311 18.0761 9.95913 -0.324147 0 0 0
329 19 1 -0.050311 17.7451 9.69261 1.18921 0 0 0
330 19 1 -0.091211 17.0433 8.32835 1.40442 0 0 0
331 19 3 0.033922 19.8084 7.1053 22.1275 0 0 -1
332 19 3 0.033922 21.5316 7.28019 22.519 0 0 -1
333 19 3 0.033922 20.741 8.36801 21.3331 0 0 -1
334 19 3 0.046089 20.1066 8.27072 0.291729 0 0 0
335 19 3 0.046089 21.2698 9.44531 -0.412515 0 0 0
336 19 4 0.121889 19.2346 10.3092 22.0687 0 0 -1
337 19 4 0.121889 17.3831 10.5909 -0.870651 0 0 0
338 19 3 0.046089 17.1771 10.5353 1.59416 0 0 0
339 19 3 0.046089 18.7053 9.64873 1.71157 0 0 0
340 19 3 0.033922 17.623 7.50597 0.97508 0 0 0
341 19 3 0.033922 16.9849 8.19674 2.48882 0 0 0
342 19 3 0.033922 16.0282 8.31224 0.99693 0 0 0
343 20 1 -0.091211 10.5625 -0.0197574 13.6209 0 0 0
344 20 1 -0.050311 11.7422 21.1485 14.4339 0 -1 0
345 20 2 -0.174311 12.9954 21.3338 13.6526 0 -1 0
346 20 2 -0.174311 14.0272 0.332596 14.1229 0 0 0
347 20 1 -0.050311 14.1945 1.16707 15.3846 0 0 0
348 20 1 -0.091211 14.1953 2.61072 14.9073 0 0 0
349 20 3 0.033922 10.9361 0.850268 13.0731 0 0 0
350 20 3 0.033922 9.74817 0.245088 14.3017 0 0 0
351 20 3 0.033922 10.1954 21.0321 12.8959 0 -1 0
352 20 3 0.046089 11.8788 21.5916 15.4247 0 -1 0
353 20 3 0.046089 11.5985 20.0641 14.4436 0 -1 0
354 20 4 0.121889 12.9469 20.9209 12.65 0 -1 0
355 20 4 0.121889 14.8746 0.361363 13.4453 0 0 0
356 20 3 0.046089 15.1519 0.924909 15.8551 0 0 0
357 20 3 0.046089 13.4408 0.929941 16.1412 0 0 0
358 20 3 0.033922 15.0964 2.73467 14.2994 0 0 0
359 20 3 0.033922 13.4007 2.97717 14.2508 0 0 0
360 20 3 0.033922 14.1946 3.33708 15.7253 0 0 0
361 21 1 -0.091211 -0.465789 21.3892 20.3311 0 -1 0
362 21 1 -0.050311 0.185853 21.0534 21.7032 0 -1 0
363 21 2 -0.174311 0.978153 19.8111 21.3843 0 -1 0
364 21 2 -0.174311 0.79698 18.5698 22.0293 0 -1 0
365 21 1 -0.050311 -0.329071 18.2072 -1.08863 0 -1 1
366 21 1 -0.091211 38.1525 17.915 22.2202 -1 -1 0
367 21 3 0.033922 0.31921 -0.0398253 19.657 0 0 0
368 21 3 0.033922 38.5326 0.343984 20.5037 -1 0 0
369 21 3 0.033922 38.8771 20.4799 19.915 -1 -1 0
370 21 3 0.046089 0.857536 21.783 22.1649 0 -1 0
371 21 3 0.046089 39.2477 20.7496 22.4643 -1 -1 0
372 21 4 0.121889 1.74492 20.0772 20.6636 0 -1 0
373 21 4 0.121889 1.53417 17.8004 21.8224 0 -1 0
374 21 3 0.046089 39.4109 18.9522 -0.289054 -1 -1 1
375 21 3 0.046089 0.0462865 17.3057 -0.595608 0 -1 1
376 21 3 0.033922 38.3089 17.1501 21.454 -1 -1 0
377 21 3 0.033922 37.3969 17.5026 -1.14312 -1 -1 1
378 21 3 0.033922 37.8471 18.9 21.8554 -1 -1 0
379 22 1 -0.091211 4.73919 0.83963 17.1469 0 0 0
380 22 1 -0.050311 6.16822 1.01581 16.8064 0 0 0
381 22 2 -0.174311 6.43011 1.03296 15.3363 0 0 0
382 22 2 -0.174311 6.74434 -0.0269275 14.555 0 0 0
383 22 1 -0.050311 6.93506 20.3541 15.0301 0 -1 0
384 22 1 -0.091211 5.63239 19.5259 14.8749 0 -1 0
385 22 3 0.033922 4.11773 1.47139 16.5055 0 0 0
386 22 3 0.033922 4.59893 1.18489 18.1754 0 0 0
387 22 3 0.033922 4.46768 21.57 17.0354 0 -1 0
388 22 3 0.046089 6.55972 1.9714 17.1673 0 0 0
389 22 3 0.046089 6.69187 0.18743 17.2925 0 0 0
390 22 4 0.121889 6.41272 1.99666 14.8373 0 0 0
391 22 4 0.121889 6.77279 0.158111 13.4859 0 0 0
392 22 3 0.046089 7.31 20.3043 16.0565 0 -1 0
393 22 3 0.046089 7.71059 19.8423 14.4527 0 -1 0
394 22 3 0.033922 4.76956 19.6743 15.5308 0 -1 0
395 22 3 0.033922 5.32146 19.6432 13.8327 0 -1 0
396 22 3 0.033922 5.86669 18.4576 14.8979 0 -1 0
397 23 1 -0.091211 5.24555 4.55018 -0.839607 0 0 0
398 23 1 -0.050311 5.8383 5.06771 0.48851 0 0 0
399 23 2 -0.174311 5.92311 6.57994 0.498094 0 0 0
400 23 2 -0.174311 6.57576 7.38045 1.39488 0 0 0
401 23 1 -0.050311 7.60037 6.84879 2.40188 0 0 0
402 23 1 -0.091211 9.00263 6.69669 1.80139 0 0 0
403 23 3 0.033922 5.22267 3.45714 -0.803038 0 0 0
404 23 3 0.033922 5.87958 4.84089 22.356 0 0 -1
405 23 3 0.033922 4.26217 4.98632 -1.03841 0 0 0
406 23 3 0.046089 5.21138 4.73467 1.32083 0 0 0
407 23 3 0.046089 6.84574 4.68476 0.676136 0 0 0
408 23 4 0.121889 5.43584 7.14277 -0.291741 0 0 0
409 23 4 0.121889 6.38724 8.44912 1.37483 0 0 0
410 23 3 0.046089 7.29542 5.84567 2.71396 0 0 0
411 23 3 0.046089 7.65287 7.50946 3.27216 0 0 0
412 23 3 0.033922 8.96784 5.88608 1.06768 0 0 0
413 23 3 0.033922 9.36972 7.64855 1.4066 0 0 0
414 23 3 0.033922 9.75639 6.39187 2.53328 0 0 0
415 24 1 -0.091211 2.00309 14.3993 -0.497497 0 0 0
416 24 1 -0.050311 3.06699 14.9465 0.441284 0 0 0
417 24 2 -0.174311 4.42251 15.0383 -0.166825 0 0 0
418 24 2 -0.174311 5.43305 14.0682 -0.350649 0 0 0
419 24 1 -0.050311 5.42834 12.7712 0.259163 0 0 0
420 24 1 -0.091211 6.04574 11.701 -0.592635 0 0 0
421 24 3 0.033922 2.04057 14.7934 -1.51726 0 0 0
422 24 3 0.033922 1.00634 14.6602 -0.129808 0 0 0
423 24 3 0.033922 2.13609 13.3169 -0.583617 0 0 0
424 24 3 0.046089 2.77503 15.8891 0.913443 0 0 0
425 24 3 0.046089 3.23879 14.2375 1.25637 0 0 0
426 24 4 0.121889 4.57826 16.0365 -0.563682 0 0 0
427 24 4 0.121889 6.32685 14.3891 -0.876252 0 0 0
428 24 3 0.046089 4.39442 12.5384 0.530528 0 0 0
429 24 3 0.046089 5.89392 12.9311 1.23606 0 0 0
430 24 3 0.033922 6.98094 12.0367 -1.05027 0 0 0
431 24 3 0.033922 6.33058 10.8062 -0.0314374 0 0 0
432 24 3 0.033922 5.31253 11.3548 -1.32698 0 0 0
433 25 1 -0.091211 7.71193 9.10944 15.1656 0 0 0
434 25 1 -0.050311 7.51448 7.89766 14.2239 0 0 0
435 25 2 -0.174311 7.55921 8.28371 12.8064 0 0 0
436 25 2 -0.174311 7.9316 7.40536 11.7631 0 0 0
437 25 1 -0.050311 8.36257 5.94029 11.9299 0 0 0
438 25 1 -0.091211 9.57611 5.59556 11.009 0 0 0
439 25 3 0.033922 7.734 8.71386 16.1852 0 0 0
440 25 3 0.033922 6.9466 9.8662 14.9699 0 0 0
441 25 3 0.033922 8.68354 9.58227 14.9948 0 0 0
442 25 3 0.046089 8.36164 7.27618 14.5286 0 0 0
443 25 3 0.046089 6.55818 7.43766 14.4897 0 0 0
444 25 4 0.121889 7.26012 9.31487 12.6475 0 0 0
445 25 4 0.121889 7.77694 7.89287 10.8057 0 0 0
446 25 3 0.046089 7.58762 5.26037 11.564 0 0 0
447 25 3 0.046089 8.63893 5.66491 12.9519 0 0 0
448 25 3 0.033922 10.3487 6.35 11.1841 0 0 0
449 25 3 0.033922 9.9391 4.57825 11.1821 0 0 0
450 25 3 0.033922 9.28156 5.68455 9.95926 0 0 0
451 26 1 -0.091211 1.50261 20.361 16.8266 0 -1 0
452 26 1 -0.050311 0.34553 20.6434 15.8813 0 -1 0
453 26 2 -0.174311 -0.204193 19.3641 15.2545 0 -1 0
454 26 2 -0.174311 38.7705 19.3607 14.1575 -1 -1 0
455 26 1 -0.050311 38.3305 20.6526 13.4402 -1 -1 0
456 26 1 -0.091211 36.9163 20.6345 12.8442 -1 -1 0
457 26 3 0.033922 1.13221 19.6534 17.5741 0 -1 0
458 26 3 0.033922 1.87616 21.2604 17.3248 0 -1 0
459 26 3 0.033922 2.30188 19.9674 16.1918 0 -1 0
460 26 3 0.046089 39.3022 21.0952 16.4327 -1 -1 0
461 26 3 0.046089 0.767403 21.3216 15.1338 0 -1 0
462 26 4 0.121889 -0.0890609 18.3484 15.6191 0 -1 0
463 26 4 0.121889 38.4646 18.4244 13.7017 -1 -1 0
464 26 3 0.046089 39.0412 20.7358 12.6128 -1 -1 0
465 26 3 0.046089 38.3866 21.5369 14.0816 -1 -1 0
466 26 3 0.033922 36.7859 21.5023 12.191 -1 -1 0
467 26 3 0.033922 36.6219 19.7123 12.3349 -1 -1 0
468 26 3 0.033922 36.2043 20.7341 13.6688 -1 -1 0
469 27 1 -0.091211 19.1331 13.8228 6.85944 0 0 0
470 27 1 -0.050311 19.0451 12.5409 6.11822 0 0 0
471 27 2 -0.174311 19.0536 12.8159 4.59797 0 0 0
472 27 2 -0.174311 19.9362 12.1756 3.74954 0 0 0
473 27 1 -0.050311 20.7448 11.0825 4.14158 0 0 0
474 27 1 -0.091211 21.4311 10.2781 3.02748 0 0 0
475 27 3 0.033922 19.057 13.6805 7.94137 0 0 0
476 27 3 0.033922 18.2397 14.3956 6.59391 0 0 0
477 27 3 0.033922 20.1045 14.284 6.65802 0 0 0
478 27 3 0.046089 19.9196 11.904 6.28022 0 0 0
479 27 3 0.046089 18.1416 12.0069 6.42705 0 0 0
480 27 4 0.121889 18.4261 13.627 4.2424 0 0 0
481 27 4 0.121889 20.0016 12.4148 2.69288 0 0 0
482 27 3 0.046089 20.1069 10.3949 4.70468 0 0 0
483 27 3 0.046089 21.4621 11.4013 4.90349 0 0 0
484 27 3 0.033922 20.6719 9.88828 2.34309 0 0 0
485 27 3 0.033922 22.119 10.8726 2.41916 0 0 0
486 27 3 0.033922 21.9827 9.42289 3.42879 0 0 0
487 28 1 -0.091211 8.54501 17.7862 -0.284409 0 -1 0
488 28 1 -0.050311 7.29178 18.5882 -0.0695095 0 -1 0
489 28 2 -0.174311 6.59677 18.1241 1.12304 0 -1 0
490 28 2 -0.174311 5.35203 18.4759 1.36715 0 -1 0
491 28 1 -0.050311 4.43856 19.425 0.515966 0 -1 0
492 28 1 -0.091211 3.08939 18.7504 0.357225 0 -1 0
493 28 3 0.033922 9.17167 18.3181 -1.00625 0 -1 0
494 28 3 0.033922 8.23939 16.8063 -0.662549 0 -1 0
495 28 3 0.033922 9.10284 17.639 0.645033 0 -1 0
496 28 3 0.046089 7.59501 19.6153 0.153397 0 -1 0
497 28 3 0.046089 6.64999 18.5582 -0.954903 0 -1 0
498 28 4 0.121889 7.12729 17.4713 1.80891 0 -1 0
499 28 4 0.121889 5.1073 18.0928 2.35274 0 -1 0
500 28 3 0.046089 4.86644 19.6713 -0.460207 0 -1 0
501 28 3 0.046089 4.22678 20.4102 0.941561 0 -1 0
502 28 3 0.033922 2.3443 19.2709 -0.251621 0 -1 0
503 28 3 0.033922 3.23351 17.7746 -0.115691 0 -1 0
504 28 3 0.033922 2.66042 18.4822 1.32712 0 -1 0
505 29 1 -0.091211 7.73438 4.39005 6.83304 0 0 0
506 29 1 -0.050311 7.31289 3.167 7.58326 0 0 0
507 29 2 -0.174311 7.14823 3.45898 9.06753 0 0 0
508 29 2 -0.174311 7.69379 2.59077 10.0162 0 0 0
509 29 1 -0.050311 8.35033 1.31632 9.60102 0 0 0
510 29 1 -0.091211 8.57121 0.418271 10.751 0 0 0
511 29 3 0.033922 8.57288 4.84688 7.36687 0 0 0
512 29 3 0.033922 6.99282 5.19406 6.8141 0 0 0
513 29 3 0.033922 7.94547 3.99577 5.83473 0 0 0
514 29 3 0.046089 6.3294 2.79325 7.28352 0 0 0
515 29 3 0.046089 7.98805 2.3793 7.2363 0 0 0
516 29 4 0.121889 6.63045 4.33184 9.45235 0 0 0
517 29 4 0.121889 7.7416 2.85272 11.0684 0 0 0
518 29 3 0.046089 9.2596 1.60268 9.06437 0 0 0
519 29 3 0.046089 7.73076 0.867534 8.81907 0 0 0
520 29 3 0.033922 7.66229 0.194737 11.3173 0 0 0
521 29 3 0.033922 9.14463 21.3352 10.4106 0 -1 0
522 29 3 0.033922 9.25133 0.897829 11.4611 0 0 0
523 30 1 -0.091211 12.5947 12.8163 19.9244 0 0 0
524 30 1 -0.050311 12.4957 13.1565 21.446 0 0 0
525 30 2 -0.174311 11.096 12.628 21.805 0 0 0
526 30 2 -0.174311 10.285 13.1636 -1.2855 0 0 1
527 30 1 -0.050311 10.7382 14.2644 -0.415897 0 0 1
528 30 1 -0.091211 9.74636 14.5193 0.685298 0 0 1
529 30 3 0.033922 13.6045 13.0756 19.5929 0 0 0
530 30 3 0.033922 11.7561 13.2904 19.4061 0 0 0
531 30 3 0.033922 12.6165 11.7333 19.7719 0 0 0
532 30 3 0.046089 13.1812 12.5487 22.0438 0 0 0
533 30 3 0.046089 12.6751 14.219 21.635 0 0 0
534 30 4 0.121889 10.8923 11.6931 21.2927 0 0 0
535 30 4 0.121889 9.319 12.7117 -1.0837 0 0 1
536 30 3 0.046089 10.7877 15.2122 -0.959801 0 0 1
537 30 3 0.046089 11.7293 14.0768 0.00761747 0 0 1
538 30 3 0.033922 9.46077 13.6165 1.23306 0 0 1
539 30 3 0.033922 10.2396 15.2456 1.33795 0 0 1
540 30 3 0.033922 8.80889 14.9506 0.322152 0 0 1
541 31 1 -0.091211 18.7581 4.20382 15.3108 0 1 0
542 31 1 -0.050311 17.8408 3.04013 15.3069 0 1 0
543 31 2 -0.174311 18.5364 1.75556 15.5719 0 1 0
544 31 2 -0.174311 18.8495 1.26939 16.8068 0 1 0
545 31 1 -0.050311 18.4816 2.01572 18.099 0 1 0
546 31 1 -0.091211 17.0737 1.611 18.5568 0 1 0
547 31 3 0.033922 19.4205 4.11998 14.4443 0 1 0
548 31 3 0.033922 19.301 4.27679 16.2578 0 1 0
549 31 3 0.033922 18.1918 5.1037 15.0536 0 1 0
550 31 3 0.046089 17.0363 3.16747 16.0373 0 1 0
551 31 3 0.046089 17.355 3.07324 14.3273 0 1 0
552 31 4 0.121889 18.9599 1.2257 14.7246 0 1 0
553 31 4 0.121889 19.5252 0.42025 16.8254 0 1 0
554 31 3 0.046089 18.6222 3.09377 17.9778 0 1 0
555 31 3 0.046089 19.1582 1.75244 18.9173 0 1 0
556 31 3 0.033922 16.3426 2.24108 18.0418 0 1 0
557 31 3 0.033922 17.0329 0.538901 18.3433 0 1 0
558 31 3 0.033922 17.0327 1.79685 19.634 0 1 0
559 32 1 -0.091211 17.8239 0.323173 3.0047 0 1 0
560 32 1 -0.050311 18.4339 0.0618386 4.35931 0 1 0
561 32 2 -0.174311 17.5043 0.609426 5.41505 0 1 0
562 32 2 -0.174311 17.7899 0.654813 6.74878 0 1 0
563 32 1 -0.050311 19.1127 0.442451 7.36264 0 1 0
564 32 1 -0.091211 19.72 1.87299 7.62331 0 1 0
565 32 3 0.033922 17.8599 1.38957 2.76362 0 1 0
566 32 3 0.033922 16.8129 -0.0725631 2.87074 0 1 0
567 32 3 0.033922 18.4149 21.5561 2.26741 0 0 0
568 32 3 0.046089 18.5182 20.7599 4.45894 0 0 0
569 32 3 0.046089 19.3481 0.640675 4.52021 0 1 0
570 32 4 0.121889 16.5441 1.05051 5.16692 0 1 0
571 32 4 0.121889 16.9896 0.940863 7.42402 0 1 0
572 32 3 0.046089 19.6541 -0.167142 6.63334 0 1 0
573 32 3 0.046089 18.9898 21.6687 8.29553 0 0 0
574 32 3 0.033922 20.4668 1.80624 8.41985 0 1 0
575 32 3 0.033922 20.205 2.22797 6.70932 0 1 0
576 32 3 0.033922 18.9432 2.51741 8.0453 0 1 0
577 33 1 -0.091211 9.67966 15.3855 7.67298 0 0 0
578 33 1 -0.050311 11.0169 15.3303 8.40023 0 0 0
579 33 2 -0.174311 10.936 14.6224 9.76887 0 0 0
580 33 2 -0.174311 10.6718 15.1332 11.0102 0 0 0
581 33 1 -0.050311 10.5928 16.6198 11.3449 0 0 0
582 33 1 -0.091211 11.0467 16.7959 12.7623 0 0 0
583 33 3 0.033922 8.89213 15.8097 8.30272 0 0 0
584 33 3 0.033922 9.34281 14.4028 7.33021 0 0 0
585 33 3 0.033922 9.81996 16.099 6.85573 0 0 0
586 33 3 0.046089 11.7484 14.7087 7.87562 0 0 0
587 33 3 0.046089 11.3463 16.3684 8.50281 0 0 0
588 33 4 0.121889 10.9936 13.5464 9.63871 0 0 0
589 33 4 0.121889 10.8047 14.4872 11.8722 0 0 0
590 33 3 0.046089 9.57429 16.9894 11.194 0 0 0
591 33 3 0.046089 11.2431 17.1605 10.6511 0 0 0
592 33 3 0.033922 12.064 16.4167 12.8967 0 0 0
593 33 3 0.033922 10.8996 17.7975 13.177 0 0 0
594 33 3 0.033922 10.3575 16.2678 13.4278 0 0 0
595 34 1 -0.091211 20.0771 15.6199 15.7524 0 0 0
596 34 1 -0.050311 19.985 14.7585 14.4917 0 0 0
597 34 2 -0.174311 18.8398 15.1937 13.6516 0 0 0
598 34 2 -0.174311 18.8271 14.9861 12.2839 0 0 0
599 34 1 -0.050311 19.7041 14.1313 11.3964 0 0 0
600 34 1 -0.091211 20.0082 14.9931 10.2282 0 0 0
601 34 3 0.033922 19.9889 16.6832 15.511 0 0 0
602 34 3 0.033922 21.1296 15.5065 16.0284 0 0 0
603 34 3 0.033922 19.2954 15.4051 16.4868 0 0 0
604 34 3 0.046089 20.898 14.9336 13.9151 0 0 0
605 34 3 0.046089 20.1239 13.6954 14.7092 0 0 0
606 34 4 0.121889 18.0459 15.7444 14.1461 0 0 0
607 34 4 0.121889 17.9995 15.4242 11.735 0 0 0
608 34 3 0.046089 19.1607 13.229 11.1011 0 0 0
609 34 3 0.046089 20.6728 13.8876 11.8424 0 0 0
610 34 3 0.033922 20.423 15.9382 10.5908 0 0 0
611 34 3 0.033922 20.7745 14.4847 9.63573 0 0 0
612 34 3 0.033922 19.1253 15.2191 9.62308 0 0 0
613 35 1 -0.091211 0.125759 15.1085 18.9638 0 0 0
614 35 1 -0.050311 0.863383 13.9458 18.3314 0 0 0
615 35 2 -0.174311 -0.183302 12.9639 17.7511 0 0 0
616 35 2 -0.174311 0.133154 11.6613 17.3084 0 0 0
617 35 1 -0.050311 1.38795 10.894 17.5961 0 0 0