ITEM: TIMESTEP
28200
ITEM: NUMBER OF ATOMS
1800
ITEM: BOX BOUNDS pp pp pp
-7.6984265136786689e-01 3.9577858151368005e+01
3.2934200627654420e-01 2.1279313493723649e+01
-2.0228066220947660e+00 2.3276540122094659e+01
ITEM: ATOMS id mol type q x y z ix iy iz
1 1 1 -0.091211 5.48667 15.7327 5.60084 0 -1 0
2 1 1 -0.050311 4.16356 15.6213 6.40437 0 -1 0
3 1 2 -0.174311 3.64888 14.2486 6.31745 0 -1 0
4 1 2 -0.174311 2.41501 13.8902 6.7514 0 -1 0
5 1 1 -0.050311 1.41277 14.7343 7.42778 0 -1 0
6 1 1 -0.091211 1.2005 14.3168 8.90063 0 -1 0
7 1 3 0.033922 6.26456 15.2446 6.19513 0 -1 0
8 1 3 0.033922 5.83342 16.7673 5.52357 0 -1 0
9 1 3 0.033922 5.39183 15.3166 4.59361 0 -1 0
10 1 3 0.046089 4.33797 15.9116 7.44457 0 -1 0
11 1 3 0.046089 3.39021 16.2406 5.94063 0 -1 0
12 1 4 0.121889 4.28017 13.4797 5.8836 0 -1 0
13 1 4 0.121889 2.2763 12.8285 6.57356 0 -1 0
14 1 3 0.046089 0.445199 14.5188 6.96519 0 -1 0
15 1 3 0.046089 1.7142 15.7843 7.3706 0 -1 0
16 1 3 0.033922 0.183142 14.5826 9.20222 0 -1 0
17 1 3 0.033922 1.24834 13.2262 8.97129 0 -1 0
18 1 3 0.033922 1.96454 14.7447 9.55617 0 -1 0
19 2 1 -0.091211 7.68311 7.08581 19.0168 0 0 0
20 2 1 -0.050311 9.17612 7.28423 18.7266 0 0 0
21 2 2 -0.174311 9.79492 6.02217 18.3715 0 0 0
22 2 2 -0.174311 10.8876 5.81974 17.5926 0 0 0
23 2 1 -0.050311 11.5911 6.92301 16.8654 0 0 0
24 2 1 -0.091211 12.4036 6.27424 15.7574 0 0 0
25 2 3 0.033922 7.43738 6.43322 19.8596 0 0 0
26 2 3 0.033922 7.15296 6.64629 18.1668 0 0 0
27 2 3 0.033922 7.22194 8.06963 19.1435 0 0 0
28 2 3 0.046089 9.27248 8.03254 17.9346 0 0 0
29 2 3 0.046089 9.72183 7.58115 19.627 0 0 0
30 2 4 0.121889 9.34388 5.07362 18.645 0 0 0
31 2 4 0.121889 11.2351 4.81993 17.3525 0 0 0
32 2 3 0.046089 12.2964 7.49187 17.4783 0 0 0
33 2 3 0.046089 10.8738 7.58171 16.3672 0 0 0
34 2 3 0.033922 11.8308 5.50286 15.2345 0 0 0
35 2 3 0.033922 12.712 7.05138 15.052 0 0 0
36 2 3 0.033922 13.3754 5.88698 16.0772 0 0 0
37 3 1 -0.091211 7.22249 3.21222 6.66207 0 0 0
38 3 1 -0.050311 6.38725 4.24257 7.37924 0 0 0
39 3 2 -0.174311 5.05409 3.68649 7.85098 0 0 0
40 3 2 -0.174311 4.17474 4.39012 8.64645 0 0 0
41 3 1 -0.050311 4.43911 5.85235 9.08895 0 0 0
42 3 1 -0.091211 3.87354 6.02687 10.4636 0 0 0
43 3 3 0.033922 7.29417 2.32267 7.29468 0 0 0
44 3 3 0.033922 8.22764 3.61594 6.50939 0 0 0
45 3 3 0.033922 6.68901 2.91658 5.75397 0 0 0
46 3 3 0.046089 7.00756 4.59048 8.21039 0 0 0
47 3 3 0.046089 6.22031 5.10264 6.72422 0 0 0
48 3 4 0.121889 4.79221 2.7331 7.40322 0 0 0
49 3 4 0.121889 3.18234 3.98609 8.81939 0 0 0
50 3 3 0.046089 3.89423 6.57327 8.47249 0 0 0
51 3 3 0.046089 5.47968 6.14098 8.91429 0 0 0
52 3 3 0.033922 3.89725 7.0864 10.7347 0 0 0
53 3 3 0.033922 2.82508 5.71605 10.4365 0 0 0
54 3 3 0.033922 4.4572 5.40733 11.1508 0 0 0
55 4 1 -0.091211 1.05212 0.589846 1.60955 0 0 0
56 4 1 -0.050311 2.02996 20.4786 1.26913 0 -1 0
57 4 2 -0.174311 2.87037 20.184 2.5016 0 -1 0
58 4 2 -0.174311 3.13561 18.9574 2.98657 0 -1 0
59 4 1 -0.050311 2.91195 17.6177 2.26829 0 -1 0
60 4 1 -0.091211 1.43719 17.2271 2.57142 0 -1 0
61 4 3 0.033922 0.528594 0.295843 2.52395 0 0 0
62 4 3 0.033922 0.381161 0.829032 0.779342 0 0 0
63 4 3 0.033922 1.61412 1.48995 1.87525 0 0 0
64 4 3 0.046089 1.56744 19.5763 0.858578 0 -1 0
65 4 3 0.046089 2.64467 20.8558 0.446643 0 -1 0
66 4 4 0.121889 3.19297 21.0821 3.01879 0 -1 0
67 4 4 0.121889 3.79938 18.9672 3.84526 0 -1 0
68 4 3 0.046089 3.57851 16.8159 2.59922 0 -1 0
69 4 3 0.046089 3.00337 17.7912 1.1921 0 -1 0
70 4 3 0.033922 1.17891 16.2811 2.08668 0 -1 0
71 4 3 0.033922 1.36201 16.9894 3.63654 0 -1 0
72 4 3 0.033922 0.738803 18.0347 2.33348 0 -1 0
73 5 1 -0.091211 2.16981 2.99596 5.12343 0 0 0
74 5 1 -0.050311 1.17569 4.22563 5.1894 0 0 0
75 5 2 -0.174311 -0.241757 3.75811 5.36815 0 0 0
76 5 2 -0.174311 38.9037 4.4051 5.06901 -1 0 0
77 5 1 -0.050311 38.7509 5.76136 4.48422 -1 0 0
78 5 1 -0.091211 37.771 5.57231 3.28352 -1 0 0
79 5 3 0.033922 2.15901 2.50506 6.10096 0 0 0
80 5 3 0.033922 3.19025 3.28809 4.85889 0 0 0
81 5 3 0.033922 1.83937 2.38934 4.27522 0 0 0
82 5 3 0.046089 1.3741 4.96888 5.96713 0 0 0
83 5 3 0.046089 1.23194 4.79727 4.25843 0 0 0
84 5 4 0.121889 -0.314065 2.77634 5.82522 0 0 0
85 5 4 0.121889 37.9789 3.94605 5.40382 -1 0 0
86 5 3 0.046089 -0.652843 6.25221 4.22981 0 0 0
87 5 3 0.046089 38.1707 6.42263 5.13432 -1 0 0
88 5 3 0.033922 37.4159 6.5616 2.98045 -1 0 0
89 5 3 0.033922 38.2983 5.18284 2.40776 -1 0 0
90 5 3 0.033922 36.8944 5.02574 3.6432 -1 0 0
91 6 1 -0.091211 9.94946 3.58925 -1.81332 0 0 1
92 6 1 -0.050311 8.85782 3.58036 22.382 0 0 0
93 6 2 -0.174311 9.36645 3.06709 21.0442 0 0 0
94 6 2 -0.174311 8.56625 2.51813 20.056 0 0 0
95 6 1 -0.050311 7.03303 2.23722 20.0517 0 0 0
96 6 1 -0.091211 6.70783 0.868373 19.4643 0 0 0
97 6 3 0.033922 9.88484 2.64109 -1.27161 0 0 1
98 6 3 0.033922 9.83792 4.39554 -1.0825 0 0 1
99 6 3 0.033922 10.9605 3.61155 23.0691 0 0 0
100 6 3 0.046089 7.9822 3.00208 22.691 0 0 0
101 6 3 0.046089 8.48504 4.60866 22.3661 0 0 0
102 6 4 0.121889 10.4316 3.14063 20.849 0 0 0
103 6 4 0.121889 9.07823 2.27011 19.1317 0 0 0
104 6 3 0.046089 6.53982 2.97324 19.4101 0 0 0
105 6 3 0.046089 6.67795 2.40599 21.0726 0 0 0
106 6 3 0.033922 5.70018 0.45248 19.5553 0 0 0
107 6 3 0.033922 6.92625 0.860986 18.3924 0 0 0
108 6 3 0.033922 7.36431 21.0743 19.9248 0 -1 0
109 7 1 -0.091211 32.7976 11.4379 6.67235 -1 0 0
110 7 1 -0.050311 34.0829 11.5483 7.57679 -1 0 0
111 7 2 -0.174311 35.2492 11.279 6.70929 -1 0 0
112 7 2 -0.174311 36.4978 11.9905 6.74441 -1 0 0
113 7 1 -0.050311 36.8681 13.1008 7.71402 -1 0 0
114 7 1 -0.091211 36.6735 14.3095 6.88133 -1 0 0
115 7 3 0.033922 32.513 10.3943 6.50912 -1 0 0
116 7 3 0.033922 32.9574 11.9311 5.7091 -1 0 0
117 7 3 0.033922 31.9733 11.8647 7.25115 -1 0 0
118 7 3 0.046089 34.1192 12.5386 8.04014 -1 0 0
119 7 3 0.046089 34.1664 10.7804 8.35135 -1 0 0
120 7 4 0.121889 34.9811 10.5878 5.91658 -1 0 0
121 7 4 0.121889 37.0987 11.6733 5.89808 -1 0 0
122 7 3 0.046089 37.9241 13.137 7.99709 -1 0 0
123 7 3 0.046089 36.2626 13.0686 8.6245 -1 0 0
124 7 3 0.033922 35.7241 14.2634 6.33989 -1 0 0
125 7 3 0.033922 36.6787 15.183 7.53977 -1 0 0
126 7 3 0.033922 37.5129 14.3555 6.18139 -1 0 0
127 8 1 -0.091211 2.8152 5.95872 14.1842 0 0 0
128 8 1 -0.050311 2.51239 5.06289 15.4458 0 0 0
129 8 2 -0.174311 3.64904 4.86839 16.4439 0 0 0
130 8 2 -0.174311 3.60854 4.96516 17.8381 0 0 0
131 8 1 -0.050311 2.39172 5.2895 18.5601 0 0 0
132 8 1 -0.091211 2.07478 4.25161 19.5774 0 0 0
133 8 3 0.033922 3.68579 5.58411 13.6379 0 0 0
134 8 3 0.033922 3.08937 6.95334 14.5477 0 0 0
135 8 3 0.033922 1.91769 5.99504 13.5598 0 0 0
136 8 3 0.046089 1.64163 5.51769 15.927 0 0 0
137 8 3 0.046089 2.27053 4.05561 15.0943 0 0 0
138 8 4 0.121889 4.61195 4.60582 16.0174 0 0 0
139 8 4 0.121889 4.50208 4.74141 18.4122 0 0 0
140 8 3 0.046089 1.4811 5.46957 17.9813 0 0 0
141 8 3 0.046089 2.62779 6.19989 19.1187 0 0 0
142 8 3 0.033922 1.39367 4.62876 20.3458 0 0 0
143 8 3 0.033922 1.71215 3.31554 19.1427 0 0 0
144 8 3 0.033922 2.98111 3.97384 20.1233 0 0 0
145 9 1 -0.091211 1.48662 9.17782 23.1078 0 0 0
146 9 1 -0.050311 0.0864415 9.19239 22.7018 0 0 0
147 9 2 -0.174311 -0.047618 8.34388 21.4657 0 0 0
148 9 2 -0.174311 39.2336 8.40386 20.5661 -1 0 0
149 9 1 -0.050311 38.1273 9.39293 20.6717 -1 0 0
150 9 1 -0.091211 36.8096 8.92357 21.2352 -1 0 0
151 9 3 0.033922 1.64664 8.12725 -1.93204 0 0 1
152 9 3 0.033922 1.78032 9.77022 -1.32007 0 0 1
153 9 3 0.033922 2.21486 9.54855 22.3806 0 0 0
154 9 3 0.046089 -0.632283 8.84893 -1.84776 0 0 1
155 9 3 0.046089 -0.194341 10.2204 22.455 0 0 0
156 9 4 0.121889 0.595403 7.48906 21.2818 0 0 0
157 9 4 0.121889 39.2079 7.54408 19.9042 -1 0 0
158 9 3 0.046089 38.018 9.90301 19.7102 -1 0 0
159 9 3 0.046089 38.4471 10.1505 21.3931 -1 0 0
160 9 3 0.033922 36.8663 8.15611 22.0126 -1 0 0
161 9 3 0.033922 36.3601 9.8189 21.6745 -1 0 0
162 9 3 0.033922 36.0563 8.59803 20.5118 -1 0 0
163 10 1 -0.091211 10.3247 11.939 7.10664 0 0 1
164 10 1 -0.050311 9.86474 10.6543 7.78888 0 0 1
165 10 2 -0.174311 8.54825 10.1201 7.31725 0 0 1
166 10 2 -0.174311 8.26111 9.32947 6.20331 0 0 1
167 10 1 -0.050311 9.29271 8.8714 5.22599 0 0 1
168 10 1 -0.091211 9.36115 7.36821 5.21258 0 0 1
169 10 3 0.033922 10.3466 11.8168 6.01979 0 0 1
170 10 3 0.033922 11.2042 12.406 7.55942 0 0 1
171 10 3 0.033922 9.51287 12.6067 7.40955 0 0 1
172 10 3 0.046089 10.6297 9.9159 7.53142 0 0 1
173 10 3 0.046089 9.85241 10.967 8.83707 0 0 1
174 10 4 0.121889 7.73257 10.4232 7.96596 0 0 1
175 10 4 0.121889 7.1914 9.2333 6.04685 0 0 1
176 10 3 0.046089 10.2734 9.26389 5.51019 0 0 1
177 10 3 0.046089 9.08037 9.20527 4.20613 0 0 1
178 10 3 0.033922 8.34418 7.00534 5.03729 0 0 1
179 10 3 0.033922 10.0347 6.99542 4.43537 0 0 1
180 10 3 0.033922 9.67432 6.96572 6.18035 0 0 1
181 11 1 -0.091211 37.4948 11.1181 -1.07719 -1 0 0
182 11 1 -0.050311 36.438 10.1874 -0.419238 -1 0 0
183 11 2 -0.174311 36.9461 9.637 0.902514 -1 0 0
184 11 2 -0.174311 36.2065 9.56102 2.08702 -1 0 0
185 11 1 -0.050311 34.7372 9.91295 2.21343 -1 0 0
186 11 1 -0.091211 33.9572 9.03532 3.14075 -1 0 0
187 11 3 0.033922 37.7774 11.9648 -0.444822 -1 0 0
188 11 3 0.033922 37.1349 11.4947 -2.03908 -1 0 0
189 11 3 0.033922 38.3938 10.5397 -1.30933 -1 0 0
190 11 3 0.046089 35.5812 10.8467 -0.252403 -1 0 0
191 11 3 0.046089 36.204 9.39509 -1.13621 -1 0 0
192 11 4 0.121889 37.995 9.35945 0.933309 -1 0 0
193 11 4 0.121889 36.7748 9.37317 2.99243 -1 0 0
194 11 3 0.046089 34.332 9.84067 1.19992 -1 0 0
195 11 3 0.046089 34.7162 10.9416 2.58509 -1 0 0
196 11 3 0.033922 32.9269 9.40146 3.17349 -1 0 0
197 11 3 0.033922 33.9703 8.01227 2.75368 -1 0 0
198 11 3 0.033922 34.3705 8.99196 4.15266 -1 0 0
199 12 1 -0.091211 -0.341547 9.24635 5.51605 0 0 0
200 12 1 -0.050311 1.02737 9.39664 6.2643 0 0 0
201 12 2 -0.174311 1.95899 8.3557 5.84321 0 0 0
202 12 2 -0.174311 3.31572 8.56019 5.69923 0 0 0
203 12 1 -0.050311 4.20814 9.72892 5.92864 0 0 0
204 12 1 -0.091211 4.75525 10.3511 4.58472 0 0 0
205 12 3 0.033922 39.492 8.3738 5.92952 -1 0 0
206 12 3 0.033922 -0.293704 9.1431 4.42806 0 0 0
207 12 3 0.033922 39.3092 10.0402 5.80024 -1 0 0
208 12 3 0.046089 1.38809 10.3618 5.89695 0 0 0
209 12 3 0.046089 0.953894 9.38593 7.3557 0 0 0
210 12 4 0.121889 1.55845 7.37916 5.59034 0 0 0
211 12 4 0.121889 3.85376 7.73607 5.24167 0 0 0
212 12 3 0.046089 5.00329 9.46071 6.63037 0 0 0
213 12 3 0.046089 3.65406 10.5125 6.45357 0 0 0
214 12 3 0.033922 5.39134 9.65609 4.02881 0 0 0
215 12 3 0.033922 3.88603 10.5487 3.95067 0 0 0
216 12 3 0.033922 5.26628 11.3115 4.6989 0 0 0
217 13 1 -0.091211 7.98995 13.3743 10.6248 0 0 0
218 13 1 -0.050311 6.50338 13.075 10.3857 0 0 0
219 13 2 -0.174311 6.06484 11.8351 11.2487 0 0 0
220 13 2 -0.174311 5.21954 10.8265 10.929 0 0 0
221 13 1 -0.050311 4.71735 10.7873 9.49712 0 0 0
222 13 1 -0.091211 3.30643 10.2845 9.46757 0 0 0
223 13 3 0.033922 8.55639 12.4956 10.3029 0 0 0
224 13 3 0.033922 8.15897 13.6243 11.6763 0 0 0
225 13 3 0.033922 8.27905 14.2425 10.0254 0 0 0
226 13 3 0.046089 5.92808 13.9213 10.7722 0 0 0
227 13 3 0.046089 6.18101 13.1257 9.34157 0 0 0
228 13 4 0.121889 6.40931 11.7618 12.2753 0 0 0
229 13 4 0.121889 4.89124 10.1088 11.6741 0 0 0
230 13 3 0.046089 5.36816 10.1757 8.86543 0 0 0
231 13 3 0.046089 4.72157 11.7789 9.0351 0 0 0
232 13 3 0.033922 3.27588 9.27518 9.88826 0 0 0
233 13 3 0.033922 2.71516 10.9289 10.1247 0 0 0
234 13 3 0.033922 2.90417 10.2996 8.45041 0 0 0
235 14 1 -0.091211 14.2094 10.5386 21.2375 0 0 0
236 14 1 -0.050311 13.3486 11.1808 20.136 0 0 0
237 14 2 -0.174311 12.2994 10.1863 19.7364 0 0 0
238 14 2 -0.174311 11.3367 10.3501 18.6726 0 0 0
239 14 1 -0.050311 11.401 11.5684 17.7457 0 0 0
240 14 1 -0.091211 11.053 11.133 16.2757 0 0 0
241 14 3 0.033922 14.7738 9.71531 20.7899 0 0 0
242 14 3 0.033922 13.5001 10.1402 21.9687 0 0 0
243 14 3 0.033922 14.8122 11.346 21.6633 0 0 0
244 14 3 0.046089 12.8714 12.0804 20.5354 0 0 0
245 14 3 0.046089 13.9205 11.46 19.2463 0 0 0
246 14 4 0.121889 12.0772 9.30378 20.3278 0 0 0
247 14 4 0.121889 10.5373 9.61816 18.6161 0 0 0
248 14 3 0.046089 12.3992 12.0156 17.7636 0 0 0
249 14 3 0.046089 10.6658 12.3053 18.0819 0 0 0
250 14 3 0.033922 11.0375 12.0222 15.6387 0 0 0
251 14 3 0.033922 11.7641 10.4704 15.7737 0 0 0
252 14 3 0.033922 10.0836 10.6336 16.1891 0 0 0
253 15 1 -0.091211 3.3174 16.2712 19.2648 0 0 0
254 15 1 -0.050311 1.8984 15.7848 19.5488 0 0 0
255 15 2 -0.174311 1.60036 16.0469 20.979 0 0 0
256 15 2 -0.174311 2.08931 15.2698 21.9948 0 0 0
257 15 1 -0.050311 2.69279 13.878 21.8355 0 0 0
258 15 1 -0.091211 1.76449 12.7131 22.2988 0 0 0
259 15 3 0.033922 3.43707 17.3232 19.5396 0 0 0
260 15 3 0.033922 3.47878 15.9962 18.2184 0 0 0
261 15 3 0.033922 4.04151 15.69 19.8432 0 0 0
262 15 3 0.046089 1.17477 16.3144 18.9222 0 0 0
263 15 3 0.046089 1.82716 14.7157 19.3285 0 0 0
264 15 4 0.121889 0.946207 16.8602 21.2769 0 0 0
265 15 4 0.121889 1.89653 15.4474 23.0481 0 0 0
266 15 3 0.046089 3.62262 13.7755 22.4025 0 0 0
267 15 3 0.046089 2.9375 13.5902 20.8089 0 0 0
268 15 3 0.033922 0.755539 12.8533 21.9001 0 0 0
269 15 3 0.033922 2.13365 11.758 21.9139 0 0 0
270 15 3 0.033922 1.81151 12.7079 -1.90764 0 0 1
271 16 1 -0.091211 12.5525 20.6032 5.73317 0 0 0
272 16 1 -0.050311 11.2156 20.4711 4.94127 0 0 0
273 16 2 -0.174311 10.02 21.0575 5.6823 0 0 0
274 16 2 -0.174311 8.71583 20.9927 5.23824 0 0 0
275 16 1 -0.050311 8.178 20.3831 3.97821 0 0 0
276 16 1 -0.091211 6.75815 20.6756 3.61042 0 0 0
277 16 3 0.033922 12.9574 0.661151 5.86273 0 1 0
278 16 3 0.033922 13.3122 20.0455 5.17782 0 0 0
279 16 3 0.033922 12.6489 20.1396 6.71927 0 0 0
280 16 3 0.046089 11.2088 20.8889 3.93029 0 0 0
281 16 3 0.046089 11.0471 19.3992 4.8025 0 0 0
282 16 4 0.121889 10.2196 0.777771 6.51233 0 1 0
283 16 4 0.121889 8.02109 0.533245 5.9126 0 1 0
284 16 3 0.046089 8.28649 19.2991 4.07758 0 0 0
285 16 3 0.046089 8.77142 20.7433 3.1328 0 0 0
286 16 3 0.033922 6.45149 19.8131 3.01152 0 0 0
287 16 3 0.033922 6.14579 20.7532 4.51354 0 0 0
288 16 3 0.033922 6.6249 0.614795 2.9873 0 1 0
289 17 1 -0.091211 8.4774 16.5479 14.5466 0 0 0
290 17 1 -0.050311 7.6853 17.5454 13.6904 0 0 0
291 17 2 -0.174311 6.49188 16.8361 13.1302 0 0 0
292 17 2 -0.174311 5.10395 17.1612 13.1821 0 0 0
293 17 1 -0.050311 4.58265 18.3885 13.8833 0 0 0
294 17 1 -0.091211 4.26172 17.8115 15.3762 0 0 0
295 17 3 0.033922 7.86296 16.0643 15.3117 0 0 0
296 17 3 0.033922 9.32577 17.0403 15.0308 0 0 0
297 17 3 0.033922 8.90677 15.7581 13.9233 0 0 0
298 17 3 0.046089 7.3596 18.3961 14.2961 0 0 0
299 17 3 0.046089 8.34494 17.9951 12.9426 0 0 0
300 17 4 0.121889 6.64167 15.8461 12.7111 0 0 0
301 17 4 0.121889 4.30203 16.5383 12.7988 0 0 0
302 17 3 0.046089 3.67153 18.6465 13.3356 0 0 0
303 17 3 0.046089 5.27181 19.2371 13.843 0 0 0
304 17 3 0.033922 3.98639 18.6288 16.0492 0 0 0
305 17 3 0.033922 3.43716 17.0964 15.3034 0 0 0
306 17 3 0.033922 5.18069 17.3613 15.7628 0 0 0
307 18 1 -0.091211 4.49943 13.743 1.02963 0 0 1
308 18 1 -0.050311 3.30087 13.4247 1.92777 0 0 1
309 18 2 -0.174311 2.19936 12.9613 1.06499 0 0 1
310 18 2 -0.174311 1.05339 12.453 1.57537 0 0 1
311 18 1 -0.050311 0.552126 12.4191 3.01395 0 0 1
312 18 1 -0.091211 39.3444 12.6176 3.10399 -1 0 1
313 18 3 0.033922 4.1486 14.4504 0.272641 0 0 1
314 18 3 0.033922 4.79278 12.8146 0.530855 0 0 1
315 18 3 0.033922 5.35579 14.2265 1.50861 0 0 1
316 18 3 0.046089 3.6663 12.6341 2.58956 0 0 1
317 18 3 0.046089 2.94922 14.3383 2.41602 0 0 1
318 18 4 0.121889 2.40962 12.9279 0.000695134 0 0 1
319 18 4 0.121889 0.343103 11.9421 0.933112 0 0 1
320 18 3 0.046089 1.12217 13.2395 3.45958 0 0 1
321 18 3 0.046089 0.821609 11.4847 3.51501 0 0 1
322 18 3 0.033922 39.0957 13.5726 2.63216 -1 0 1
323 18 3 0.033922 38.7592 11.8033 2.66675 -1 0 1
324 18 3 0.033922 39.0566 12.7089 4.15541 -1 0 1
325 19 1 -0.091211 17.5569 6.12667 0.653071 0 0 0
326 19 1 -0.050311 16.0527 6.59171 0.463928 0 0 0
327 19 2 -0.174311 15.8661 7.25355 -0.866728 0 0 0
328 19 2 -0.174311 14.683 7.2806 -1.60836 0 0 0
329 19 1 -0.050311 13.4107 6.56883 -1.21396 0 0 0
330 19 1 -0.091211 12.5163 6.42322 22.8718 0 0 -1
331 19 3 0.033922 17.8493 5.47309 -0.173987 0 0 0
332 19 3 0.033922 17.6327 5.49948 1.54612 0 0 0
333 19 3 0.033922 18.171 7.03171 0.632759 0 0 0
334 19 3 0.046089 15.3785 5.73483 0.552278 0 0 0
335 19 3 0.046089 15.714 7.24102 1.27654 0 0 0
336 19 4 0.121889 16.6516 7.93912 -1.1683 0 0 0
337 19 4 0.121889 14.635 7.9426 22.8322 0 0 -1
338 19 3 0.046089 12.9221 7.19787 -0.464108 0 0 0
339 19 3 0.046089 13.6391 5.56367 -0.847751 0 0 0
340 19 3 0.033922 12.9245 5.6406 22.2256 0 0 -1
341 19 3 0.033922 11.4822 6.13449 23.081 0 0 -1
342 19 3 0.033922 12.3798 7.31706 22.2561 0 0 -1
343 20 1 -0.091211 11.1372 20.1511 10.4294 0 -1 0
344 20 1 -0.050311 11.708 21.1523 11.4603 0 -1 0
345 20 2 -0.174311 13.021 20.619 12.0741 0 -1 0
346 20 2 -0.174311 13.5823 21.1937 13.2051 0 -1 0
347 20 1 -0.050311 12.8901 1.26451 14.1931 0 0 0
348 20 1 -0.091211 13.8918 1.86662 15.1449 0 0 0
349 20 3 0.033922 11.9053 20.0497 9.65713 0 -1 0
350 20 3 0.033922 10.1762 20.4479 9.99931 0 -1 0
351 20 3 0.033922 11.0531 19.1769 10.9199 0 -1 0
352 20 3 0.046089 11.9214 1.17671 11.0112 0 0 0
353 20 3 0.046089 10.9538 0.342239 12.2402 0 0 0
354 20 4 0.121889 13.4183 19.6335 11.8529 0 -1 0
355 20 4 0.121889 14.5786 20.8651 13.4832 0 -1 0
356 20 3 0.046089 12.0401 0.803094 14.704 0 0 0
357 20 3 0.046089 12.4033 2.06334 13.6261 0 0 0
358 20 3 0.033922 14.2585 0.987303 15.6824 0 0 0
359 20 3 0.033922 14.629 2.4531 14.5888 0 0 0
360 20 3 0.033922 13.3992 2.49324 15.8941 0 0 0
361 21 1 -0.091211 1.30382 0.676147 19.8648 0 0 0
362 21 1 -0.050311 0.324171 20.6987 20.5449 0 -1 0
363 21 2 -0.174311 1.02835 20.3633 21.7795 0 -1 0
364 21 2 -0.174311 0.449465 20.0508 22.996 0 -1 0
365 21 1 -0.050311 39.3245 19.9644 23.263 -1 -1 0
366 21 1 -0.091211 38.6585 0.310103 -1.70605 -1 0 1
367 21 3 0.033922 1.70565 1.41725 20.5619 0 0 0
368 21 3 0.033922 0.785701 1.28343 19.1169 0 0 0
369 21 3 0.033922 2.11191 21.0441 19.4122 0 -1 0
370 21 3 0.046089 -0.603373 21.1908 20.8517 0 -1 0
371 21 3 0.046089 0.0388096 19.7935 20.001 0 -1 0
372 21 4 0.121889 2.10646 20.2437 21.8168 0 -1 0
373 21 4 0.121889 1.05351 19.8582 -1.42238 0 -1 1
374 21 3 0.046089 39.198 19.2532 -1.21484 -1 -1 1
375 21 3 0.046089 38.8075 19.6567 22.3495 -1 -1 0
376 21 3 0.033922 38.8741 1.12195 22.8925 -1 0 0
377 21 3 0.033922 37.5784 21.0901 -1.67547 -1 -1 1
378 21 3 0.033922 38.9823 0.685874 -0.731043 -1 0 1
379 22 1 -0.091211 4.17403 1.60304 15.8409 0 0 0
380 22 1 -0.050311 5.03816 1.25871 14.6269 0 0 0
381 22 2 -0.174311 5.3176 2.55366 13.8105 0 0 0
382 22 2 -0.174311 5.96536 2.55297 12.6031 0 0 0
383 22 1 -0.050311 6.43622 1.26855 11.8639 0 0 0
384 22 1 -0.091211 8.0171 1.25708 11.787 0 0 0
385 22 3 0.033922 4.58962 2.39464 16.4712 0 0 0
386 22 3 0.033922 3.95543 0.722203 16.4516 0 0 0
387 22 3 0.033922 3.19453 1.96065 15.5102 0 0 0
388 22 3 0.046089 5.97314 0.754424 14.8879 0 0 0
389 22 3 0.046089 4.50547 0.468477 14.0899 0 0 0
390 22 4 0.121889 4.96579 3.46699 14.2796 0 0 0
391 22 4 0.121889 6.20379 3.5308 12.1969 0 0 0
392 22 3 0.046089 6.00374 1.2768 10.8592 0 0 0
393 22 3 0.046089 6.11325 0.308164 12.2762 0 0 0
394 22 3 0.033922 8.42895 2.26436 11.6757 0 0 0
395 22 3 0.033922 8.47143 0.745987 12.6409 0 0 0
396 22 3 0.033922 8.2268 0.649543 10.9018 0 0 0
397 23 1 -0.091211 5.39693 9.6303 -0.259198 0 0 0
398 23 1 -0.050311 6.07181 8.78367 0.882623 0 0 0
399 23 2 -0.174311 5.02695 8.25419 1.76496 0 0 0
400 23 2 -0.174311 5.15082 7.01238 2.35404 0 0 0
401 23 1 -0.050311 6.34438 6.0373 2.22244 0 0 0
402 23 1 -0.091211 6.2051 4.87195 3.14717 0 0 0
403 23 3 0.033922 6.18459 10.1583 -0.804554 0 0 0
404 23 3 0.033922 4.70626 10.3672 0.160969 0 0 0
405 23 3 0.033922 4.84717 9.02554 -0.986302 0 0 0
406 23 3 0.046089 6.53464 7.94529 0.353909 0 0 0
407 23 3 0.046089 6.70915 9.36151 1.55829 0 0 0
408 23 4 0.121889 4.0966 8.81109 1.81322 0 0 0
409 23 4 0.121889 4.27154 6.70351 2.91035 0 0 0
410 23 3 0.046089 7.27849 6.5847 2.37866 0 0 0
411 23 3 0.046089 6.37043 5.65974 1.19607 0 0 0
412 23 3 0.033922 6.22807 5.1014 4.21651 0 0 0
413 23 3 0.033922 5.21435 4.45289 2.9486 0 0 0
414 23 3 0.033922 7.04676 4.19912 2.95866 0 0 0
415 24 1 -0.091211 8.69687 12.7771 1.51036 0 0 0
416 24 1 -0.050311 8.90124 13.7482 2.78089 0 0 0
417 24 2 -0.174311 10.3174 14.2263 2.69617 0 0 0
418 24 2 -0.174311 10.6502 15.5448 3.05892 0 0 0
419 24 1 -0.050311 9.8376 16.6809 3.41755 0 0 0
420 24 1 -0.091211 9.81385 16.8417 4.97958 0 0 0
421 24 3 0.033922 8.77192 13.2711 0.537212 0 0 0
422 24 3 0.033922 7.66937 12.4173 1.6169 0 0 0
423 24 3 0.033922 9.41658 11.9534 1.5135 0 0 0
424 24 3 0.046089 8.22237 14.6038 2.84129 0 0 0
425 24 3 0.046089 8.73222 13.1869 3.7045 0 0 0
426 24 4 0.121889 11.0797 13.4694 2.54125 0 0 0
427 24 4 0.121889 11.7019 15.7618 3.21702 0 0 0
428 24 3 0.046089 8.82914 16.5221 3.02457 0 0 0
429 24 3 0.046089 10.2479 17.5348 2.87061 0 0 0
430 24 3 0.033922 10.8444 16.7788 5.34101 0 0 0
431 24 3 0.033922 9.40222 17.8234 5.23114 0 0 0
432 24 3 0.033922 9.22502 16.0173 5.39227 0 0 0
433 25 1 -0.091211 6.62846 7.88955 13.9346 0 0 0
434 25 1 -0.050311 7.61274 7.10376 14.6479 0 0 0
435 25 2 -0.174311 8.11147 5.96911 13.8032 0 0 0
436 25 2 -0.174311 8.20079 4.65628 14.2577 0 0 0
437 25 1 -0.050311 7.97509 4.1544 15.6554 0 0 0
438 25 1 -0.091211 8.87885 2.92209 15.8193 0 0 0
439 25 3 0.033922 6.37915 8.83447 14.4261 0 0 0
440 25 3 0.033922 5.7566 7.26746 13.7121 0 0 0
441 25 3 0.033922 7.03175 8.22514 12.9747 0 0 0
442 25 3 0.046089 8.50678 7.67802 14.9077 0 0 0
443 25 3 0.046089 7.27315 6.7844 15.6375 0 0 0
444 25 4 0.121889 8.54499 6.28235 12.8587 0 0 0
445 25 4 0.121889 8.59259 3.96789 13.5157 0 0 0
446 25 3 0.046089 6.9452 3.81434 15.798 0 0 0
447 25 3 0.046089 8.17554 4.92572 16.4048 0 0 0
448 25 3 0.033922 9.94104 3.17075 15.7383 0 0 0
449 25 3 0.033922 8.799 2.39717 16.7757 0 0 0
450 25 3 0.033922 8.69581 2.13371 15.0834 0 0 0
451 26 1 -0.091211 1.63535 1.77688 12.6527 0 0 0
452 26 1 -0.050311 1.40742 0.394451 13.2371 0 0 0
453 26 2 -0.174311 0.036273 21.0681 13.7756 0 -1 0
454 26 2 -0.174311 -0.328727 20.1206 14.6716 0 -1 0
455 26 1 -0.050311 0.638628 19.0591 15.1546 0 -1 0
456 26 1 -0.091211 1.11897 19.1522 16.6358 0 -1 0
457 26 3 0.033922 0.918574 1.87888 11.8326 0 0 0
458 26 3 0.033922 2.6486 1.99452 12.3026 0 0 0
459 26 3 0.033922 1.35414 2.41918 13.4923 0 0 0
460 26 3 0.046089 1.64145 20.5846 12.4857 0 -1 0
461 26 3 0.046089 2.15424 0.280113 14.0282 0 0 0
462 26 4 0.121889 39.6524 0.834378 13.4153 -1 0 0
463 26 4 0.121889 38.9652 20.047 14.921 -1 -1 0
464 26 3 0.046089 1.47761 19.0194 14.4538 0 -1 0
465 26 3 0.046089 0.148159 18.0842 15.0789 0 -1 0
466 26 3 0.033922 1.91308 18.4435 16.8885 0 -1 0
467 26 3 0.033922 1.42149 20.1399 16.9955 0 -1 0
468 26 3 0.033922 0.324547 18.8685 17.3323 0 -1 0
469 27 1 -0.091211 21.258 12.9928 7.33545 0 0 0
470 27 1 -0.050311 20.9166 11.5205 7.63198 0 0 0
471 27 2 -0.174311 22.1312 10.7645 8.09447 0 0 0
472 27 2 -0.174311 23.0876 10.3034 7.26361 0 0 0
473 27 1 -0.050311 23.0763 10.2901 5.78714 0 0 0
474 27 1 -0.091211 24.4093 10.8025 5.23725 0 0 0
475 27 3 0.033922 20.361 13.5819 7.12321 0 0 0
476 27 3 0.033922 21.9244 13.0312 6.4688 0 0 0
477 27 3 0.033922 21.8123 13.3179 8.22075 0 0 0
478 27 3 0.046089 20.1734 11.4711 8.43316 0 0 0
479 27 3 0.046089 20.4678 11.0314 6.76247 0 0 0
480 27 4 0.121889 22.3369 10.699 9.15817 0 0 0
481 27 4 0.121889 23.8914 9.83565 7.82324 0 0 0
482 27 3 0.046089 22.2328 10.8745 5.40815 0 0 0
483 27 3 0.046089 22.958 9.245 5.48647 0 0 0
484 27 3 0.033922 24.766 11.7171 5.71975 0 0 0
485 27 3 0.033922 25.2283 10.1039 5.43172 0 0 0
486 27 3 0.033922 24.4794 10.8412 4.14626 0 0 0
487 28 1 -0.091211 6.86783 1.63142 -0.610898 0 0 0
488 28 1 -0.050311 5.68306 0.798396 -0.355293 0 0 0
489 28 2 -0.174311 6.07674 20.3623 -0.116624 0 -1 0
490 28 2 -0.174311 5.66232 19.2026 -0.795294 0 -1 0
491 28 1 -0.050311 4.74456 19.1786 23.2669 0 -1 -1
492 28 1 -0.091211 3.9168 17.9427 23.229 0 -1 -1
493 28 3 0.033922 6.54273 2.59617 -1.01114 0 0 0
494 28 3 0.033922 7.42306 1.15327 -1.42314 0 0 0
495 28 3 0.033922 7.45405 1.78934 0.299085 0 0 0
496 28 3 0.046089 5.11395 1.10016 0.528844 0 0 0
497 28 3 0.046089 5.02824 0.884838 -1.22729 0 0 0
498 28 4 0.121889 6.77547 20.1579 0.688386 0 -1 0
499 28 4 0.121889 6.08447 18.2332 -0.55005 0 -1 0
500 28 3 0.046089 5.31818 19.3843 22.3584 0 -1 -1
501 28 3 0.046089 4.03799 20.0125 23.3125 0 -1 -1
502 28 3 0.033922 3.33648 18.0501 22.3079 0 -1 -1
503 28 3 0.033922 4.57237 17.0708 23.1482 0 -1 -1
504 28 3 0.033922 3.25585 17.7916 -1.21188 0 -1 0
505 29 1 -0.091211 10.9785 8.5699 12.0063 0 0 0
506 29 1 -0.050311 10.9565 7.12256 11.5104 0 0 0
507 29 2 -0.174311 9.68824 6.89473 10.7066 0 0 0
508 29 2 -0.174311 9.21975 5.63997 10.3269 0 0 0
509 29 1 -0.050311 10.0731 4.40988 10.6531 0 0 0
510 29 1 -0.091211 9.77307 3.22375 9.60112 0 0 0
511 29 3 0.033922 10.1444 8.64317 12.7103 0 0 0
512 29 3 0.033922 10.8065 9.25643 11.1722 0 0 0
513 29 3 0.033922 11.9387 8.7892 12.4822 0 0 0
514 29 3 0.046089 11.8018 6.90861 10.8498 0 0 0
515 29 3 0.046089 11.0593 6.37182 12.2994 0 0 0
516 29 4 0.121889 9.04719 7.71837 10.4088 0 0 0
517 29 4 0.121889 8.27461 5.50316 9.81116 0 0 0
518 29 3 0.046089 9.86984 4.03714 11.6613 0 0 0
519 29 3 0.046089 11.1383 4.65443 10.6056 0 0 0
520 29 3 0.033922 10.0667 3.51565 8.58857 0 0 0
521 29 3 0.033922 10.2885 2.29411 9.85949 0 0 0
522 29 3 0.033922 8.73092 2.89349 9.63962 0 0 0
523 30 1 -0.091211 14.1879 16.8432 20.6368 0 0 0
524 30 1 -0.050311 13.9461 15.9801 21.9419 0 0 0
525 30 2 -0.174311 12.6462 16.3163 22.6733 0 0 0
526 30 2 -0.174311 11.9136 15.3578 -1.93648 0 0 1
527 30 1 -0.050311 12.2923 13.8938 -1.90549 0 0 1
528 30 1 -0.091211 11.816 13.393 -0.542461 0 0 1
529 30 3 0.033922 15.1071 16.6719 20.069 0 0 0
530 30 3 0.033922 14.2964 17.871 20.9949 0 0 0
531 30 3 0.033922 13.3207 16.685 19.9889 0 0 0
532 30 3 0.046089 14.0666 14.9161 21.7184 0 0 0
533 30 3 0.046089 14.7103 16.2594 22.6731 0 0 0
534 30 4 0.121889 12.3373 17.3529 22.5831 0 0 0
535 30 4 0.121889 10.9324 15.6658 -1.58967 0 0 1
536 30 3 0.046089 13.352 13.6342 -1.98496 0 0 1
537 30 3 0.046089 11.681 13.3328 22.6809 0 0 0
538 30 3 0.033922 10.7391 13.569 -0.466531 0 0 1
539 30 3 0.033922 12.0124 12.3449 -0.298052 0 0 1
540 30 3 0.033922 12.2991 13.9963 0.231691 0 0 1
541 31 1 -0.091211 20.0409 6.16311 13.4664 0 1 0
542 31 1 -0.050311 20.2238 4.78048 13.0128 0 1 0
543 31 2 -0.174311 18.9851 3.97989 12.6859 0 1 0
544 31 2 -0.174311 18.2986 3.22607 13.6194 0 1 0
545 31 1 -0.050311 18.7334 2.77159 14.9938 0 1 0
546 31 1 -0.091211 18.5804 1.33742 15.1633 0 1 0
547 31 3 0.033922 19.6578 6.25562 14.4869 0 1 0
548 31 3 0.033922 19.3659 6.70715 12.7993 0 1 0
549 31 3 0.033922 21.0274 6.63146 13.4015 0 1 0
550 31 3 0.046089 20.851 4.84733 12.119 0 1 0
551 31 3 0.046089 20.9088 4.30436 13.7205 0 1 0
552 31 4 0.121889 18.5561 4.01215 11.6894 0 1 0
553 31 4 0.121889 17.3291 2.91035 13.2476 0 1 0
554 31 3 0.046089 18.0098 3.10362 15.744 0 1 0
555 31 3 0.046089 19.7511 3.04439 15.288 0 1 0
556 31 3 0.033922 17.5183 1.07816 15.1988 0 1 0
557 31 3 0.033922 19.0803 0.794122 14.3561 0 1 0
558 31 3 0.033922 19.0231 1.04869 16.121 0 1 0
559 32 1 -0.091211 17.1091 20.9631 1.97728 0 0 0
560 32 1 -0.050311 16.2671 20.6205 3.16149 0 0 0
561 32 2 -0.174311 16.6172 19.2914 3.77104 0 0 0
562 32 2 -0.174311 17.5942 19.1421 4.67946 0 0 0
563 32 1 -0.050311 18.385 20.2636 5.25765 0 0 0
564 32 1 -0.091211 19.2916 19.7518 6.43038 0 0 0
565 32 3 0.033922 17.2569 20.0585 1.38011 0 0 0
566 32 3 0.033922 18.0955 0.399548 2.24992 0 1 0
567 32 3 0.033922 16.6542 0.772242 1.33437 0 1 0
568 32 3 0.046089 16.3874 0.510023 3.8525 0 1 0
569 32 3 0.046089 15.193 20.6339 2.95468 0 0 0
570 32 4 0.121889 16.0396 18.4539 3.39292 0 0 0
571 32 4 0.121889 17.8393 18.1521 5.0507 0 0 0
572 32 3 0.046089 17.7418 21.0731 5.61487 0 0 0
573 32 3 0.046089 18.9724 20.7026 4.44587 0 0 0
574 32 3 0.033922 20.0635 20.5256 6.47574 0 0 0
575 32 3 0.033922 18.778 19.6744 7.39308 0 0 0
576 32 3 0.033922 19.7794 18.7841 6.28105 0 0 0
577 33 1 -0.091211 12.6353 17.5093 8.54609 0 0 0
578 33 1 -0.050311 11.6799 16.3003 8.69414 0 0 0
579 33 2 -0.174311 10.7141 16.5958 9.87475 0 0 0
580 33 2 -0.174311 9.39305 17.0615 9.68914 0 0 0
581 33 1 -0.050311 8.65656 17.1977 8.29658 0 0 0
582 33 1 -0.091211 8.42569 18.6242 8.09568 0 0 0
583 33 3 0.033922 13.1932 17.7916 9.44373 0 0 0
584 33 3 0.033922 12.0225 18.3755 8.27968 0 0 0
585 33 3 0.033922 13.2874 17.1835 7.73049 0 0 0
586 33 3 0.046089 11.2155 16.2098 7.70785 0 0 0
587 33 3 0.046089 12.2765 15.392 8.81969 0 0 0
588 33 4 0.121889 11.1305 16.6816 10.8734 0 0 0
589 33 4 0.121889 8.70542 17.2701 10.5026 0 0 0
590 33 3 0.046089 7.67008 16.725 8.29937 0 0 0
591 33 3 0.046089 9.17637 16.6687 7.49249 0 0 0
592 33 3 0.033922 9.35822 19.1827 8.2185 0 0 0
593 33 3 0.033922 7.90484 18.7071 7.13729 0 0 0
594 33 3 0.033922 7.70195 19.0801 8.77762 0 0 0
595 34 1 -0.091211 19.7544 16.2491 14.3423 0 0 0
596 34 1 -0.050311 20.4788 15.4623 13.1738 0 0 0
597 34 2 -0.174311 21.9074 15.0638 13.6024 0 0 0
598 34 2 -0.174311 23.1487 15.2602 12.946 0 0 0
599 34 1 -0.050311 23.3998 15.9896 11.6091 0 0 0
600 34 1 -0.091211 22.9644 15.1996 10.3416 0 0 0
601 34 3 0.033922 19.5043 15.692 15.2499 0 0 0
602 34 3 0.033922 18.8535 16.7155 13.933 0 0 0
603 34 3 0.033922 20.4696 17.0371 14.5955 0 0 0
604 34 3 0.046089 19.9695 14.5178 12.9616 0 0 0
605 34 3 0.046089 20.4862 16.0106 12.2272 0 0 0
606 34 4 0.121889 21.963 14.5491 14.5564 0 0 0
607 34 4 0.121889 24.0048 14.833 13.4585 0 0 0
608 34 3 0.046089 24.4491 16.2988 11.6194 0 0 0
609 34 3 0.046089 22.774 16.8866 11.591 0 0 0
610 34 3 0.033922 21.9163 14.9108 10.4627 0 0 0
611 34 3 0.033922 23.127 15.7958 9.43892 0 0 0
612 34 3 0.033922 23.6533 14.3547 10.2512 0 0 0
613 35 1 -0.091211 -0.761657 11.948 18.4124 0 0 0
614 35 1 -0.050311 0.6926 11.5444 18.6841 0 0 0
615 35 2 -0.174311 1.23662 10.7403 17.4927 0 0 0
616 35 2 -0.174311 2.48544 10.0975 17.4785 0 0 0
617 35 1 -0.050311 3.53959 10.243 18.5528 0 0 0
618 35 1 -0.091211 4.75192 9.50417 18.0355 0 0 0