ITEM: TIMESTEP
46400
ITEM: NUMBER OF ATOMS
1800
ITEM: BOX BOUNDS pp pp pp
-1.0340106590285103e+00 3.9842026159027938e+01
-2.1517931404037078e+00 2.3760448640404064e+01
5.9137737074243546e-01 2.0662356129257411e+01
ITEM: ATOMS id mol type q x y z ix iy iz
1 1 1 -0.091211 2.97077 17.6219 11.6836 0 -1 0
2 1 1 -0.050311 3.88253 16.7087 10.8288 0 -1 0
3 1 2 -0.174311 3.44044 16.6764 9.34772 0 -1 0
4 1 2 -0.174311 3.88426 17.5248 8.36922 0 -1 0
5 1 1 -0.050311 4.7383 18.7844 8.49019 0 -1 0
6 1 1 -0.091211 4.00636 19.9801 7.77881 0 -1 0
7 1 3 0.033922 2.99361 18.5882 11.1714 0 -1 0
8 1 3 0.033922 3.38381 17.738 12.6898 0 -1 0
9 1 3 0.033922 1.99467 17.1405 11.7939 0 -1 0
10 1 3 0.046089 4.95517 16.9195 10.8701 0 -1 0
11 1 3 0.046089 3.98611 15.7025 11.2453 0 -1 0
12 1 4 0.121889 2.7165 15.9188 9.06478 0 -1 0
13 1 4 0.121889 3.45198 17.3162 7.39577 0 -1 0
14 1 3 0.046089 5.74945 18.5845 8.12371 0 -1 0
15 1 3 0.046089 4.83069 19.0261 9.55301 0 -1 0
16 1 3 0.033922 3.01493 20.1208 8.21923 0 -1 0
17 1 3 0.033922 4.44724 20.9453 8.04463 0 -1 0
18 1 3 0.033922 3.97945 19.8017 6.69992 0 -1 0
19 2 1 -0.091211 11.5634 1.95145 17.3997 0 0 0
20 2 1 -0.050311 12.6395 0.956463 17.8519 0 0 0
21 2 2 -0.174311 12.555 -0.250646 17.0613 0 0 0
22 2 2 -0.174311 13.5023 -1.24477 17.1122 0 0 0
23 2 1 -0.050311 14.7937 -1.12113 17.8949 0 0 0
24 2 1 -0.091211 15.1593 23.3879 18.4311 0 -1 0
25 2 3 0.033922 10.5633 1.57444 17.6329 0 0 0
26 2 3 0.033922 11.5581 2.20552 16.3357 0 0 0
27 2 3 0.033922 11.6107 2.87357 17.9862 0 0 0
28 2 3 0.046089 13.625 1.41761 17.7386 0 0 0
29 2 3 0.046089 12.4412 0.725549 18.9026 0 0 0
30 2 4 0.121889 11.7559 -0.374743 16.3374 0 0 0
31 2 4 0.121889 13.2975 -2.05294 16.4173 0 0 0
32 2 3 0.046089 14.6902 -0.424212 18.7316 0 0 0
33 2 3 0.046089 15.644 -0.731442 17.3276 0 0 0
34 2 3 0.033922 15.9721 23.5034 19.154 0 -1 0
35 2 3 0.033922 14.3171 22.8987 18.9291 0 -1 0
36 2 3 0.033922 15.4517 22.7296 17.6078 0 -1 0
37 3 1 -0.091211 8.12656 7.1902 6.7137 0 0 0
38 3 1 -0.050311 7.4982 7.08861 8.15249 0 0 0
39 3 2 -0.174311 7.21975 5.61178 8.48275 0 0 0
40 3 2 -0.174311 6.10709 5.19995 9.18479 0 0 0
41 3 1 -0.050311 4.96397 6.05538 9.81056 0 0 0
42 3 1 -0.091211 4.35122 5.43222 11.0789 0 0 0
43 3 3 0.033922 8.86499 6.42347 6.46172 0 0 0
44 3 3 0.033922 8.52189 8.18922 6.5081 0 0 0
45 3 3 0.033922 7.32285 7.05076 5.98483 0 0 0
46 3 3 0.046089 8.3196 7.41315 8.79795 0 0 0
47 3 3 0.046089 6.64979 7.76689 8.2821 0 0 0
48 3 4 0.121889 7.95094 4.90878 8.09652 0 0 0
49 3 4 0.121889 6.01334 4.11973 9.23274 0 0 0
50 3 3 0.046089 4.21155 6.11551 9.0188 0 0 0
51 3 3 0.046089 5.28466 7.07916 10.0242 0 0 0
52 3 3 0.033922 3.55685 6.07796 11.4644 0 0 0
53 3 3 0.033922 3.95024 4.43031 10.9001 0 0 0
54 3 3 0.033922 5.18877 5.3408 11.7766 0 0 0
55 4 1 -0.091211 4.24031 1.86364 8.85059 0 0 0
56 4 1 -0.050311 3.78216 0.701603 8.07802 0 0 0
57 4 2 -0.174311 4.74119 0.634944 6.91827 0 0 0
58 4 2 -0.174311 4.37288 0.65086 5.54252 0 0 0
59 4 1 -0.050311 2.96795 0.983974 5.00744 0 0 0
60 4 1 -0.091211 3.01475 1.92492 3.7974 0 0 0
61 4 3 0.033922 3.63248 2.08771 9.73204 0 0 0
62 4 3 0.033922 4.14353 2.65021 8.09659 0 0 0
63 4 3 0.033922 5.27785 1.75133 9.17863 0 0 0
64 4 3 0.046089 3.863 -0.222859 8.65718 0 0 0
65 4 3 0.046089 2.74563 0.86529 7.76898 0 0 0
66 4 4 0.121889 5.79973 0.765501 7.11964 0 0 0
67 4 4 0.121889 5.12436 0.478746 4.77853 0 0 0
68 4 3 0.046089 2.26184 1.27557 5.79038 0 0 0
69 4 3 0.046089 2.57133 0.0373443 4.62905 0 0 0
70 4 3 0.033922 2.08282 2.4429 3.55273 0 0 0
71 4 3 0.033922 3.68857 2.74971 4.04702 0 0 0
72 4 3 0.033922 3.39026 1.34302 2.95065 0 0 0
73 5 1 -0.091211 1.21544 5.84946 20.3557 0 0 -1
74 5 1 -0.050311 0.0328659 5.92402 1.29344 0 0 0
75 5 2 -0.174311 -0.0172374 4.7565 2.33513 0 0 0
76 5 2 -0.174311 -0.758834 4.7802 3.48177 0 0 0
77 5 1 -0.050311 39.3156 5.94608 3.86901 -1 0 0
78 5 1 -0.091211 38.1741 5.554 4.7982 -1 0 0
79 5 3 0.033922 1.28393 6.8756 19.983 0 0 -1
80 5 3 0.033922 1.07907 5.16812 19.5109 0 0 -1
81 5 3 0.033922 2.20041 5.58666 0.681532 0 0 0
82 5 3 0.046089 -0.0373836 6.90115 1.78012 0 0 0
83 5 3 0.046089 -0.893335 5.78037 0.729358 0 0 0
84 5 4 0.121889 0.749018 4.01506 2.13228 0 0 0
85 5 4 0.121889 -0.631105 3.97246 4.19535 0 0 0
86 5 3 0.046089 38.8856 6.36532 2.95476 -1 0 0
87 5 3 0.046089 -0.953713 6.73979 4.31462 0 0 0
88 5 3 0.033922 37.6611 6.44742 5.1659 -1 0 0
89 5 3 0.033922 37.4444 4.83362 4.41723 -1 0 0
90 5 3 0.033922 38.6548 5.08341 5.66084 -1 0 0
91 6 1 -0.091211 13.188 2.82058 2.00824 0 0 1
92 6 1 -0.050311 12.1476 3.94901 1.77744 0 0 1
93 6 2 -0.174311 12.7959 5.20312 1.34034 0 0 1
94 6 2 -0.174311 12.0958 6.27251 0.758149 0 0 1
95 6 1 -0.050311 10.628 6.26488 20.4479 0 0 0
96 6 1 -0.091211 10.5058 6.02976 18.9154 0 0 0
97 6 3 0.033922 13.8261 3.10476 2.85007 0 0 1
98 6 3 0.033922 13.8548 2.71976 1.14699 0 0 1
99 6 3 0.033922 12.7572 1.86127 2.30953 0 0 1
100 6 3 0.046089 11.3739 3.60147 1.08666 0 0 1
101 6 3 0.046089 11.6595 4.11738 2.7418 0 0 1
102 6 4 0.121889 13.8674 5.32126 1.46713 0 0 1
103 6 4 0.121889 12.615 7.21429 0.611758 0 0 1
104 6 3 0.046089 10.2197 7.24137 0.653181 0 0 1
105 6 3 0.046089 10.0383 5.47413 0.849718 0 0 1
106 6 3 0.033922 9.42683 5.89261 18.7986 0 0 0
107 6 3 0.033922 10.8228 6.89949 18.3326 0 0 0
108 6 3 0.033922 11.0182 5.1209 18.5867 0 0 0
109 7 1 -0.091211 33.8888 20.0196 8.04271 -1 0 0
110 7 1 -0.050311 34.0267 20.6102 6.59261 -1 0 0
111 7 2 -0.174311 35.4983 20.6593 6.21739 -1 0 0
112 7 2 -0.174311 36.1479 20.0815 5.16401 -1 0 0
113 7 1 -0.050311 35.511 19.3136 4.06749 -1 0 0
114 7 1 -0.091211 36.6463 18.6246 3.27762 -1 0 0
115 7 3 0.033922 34.6136 20.4394 8.74633 -1 0 0
116 7 3 0.033922 34.0788 18.9431 8.08423 -1 0 0
117 7 3 0.033922 32.852 20.2699 8.2856 -1 0 0
118 7 3 0.046089 33.3764 20.0445 5.9191 -1 0 0
119 7 3 0.046089 33.7135 21.6544 6.50259 -1 0 0
120 7 4 0.121889 36.0693 21.2073 6.96005 -1 0 0
121 7 4 0.121889 37.2201 20.2385 5.1023 -1 0 0
122 7 3 0.046089 34.9531 20.0363 3.46479 -1 0 0
123 7 3 0.046089 34.7438 18.5937 4.3672 -1 0 0
124 7 3 0.033922 37.0491 17.788 3.85594 -1 0 0
125 7 3 0.033922 36.2538 18.2157 2.34202 -1 0 0
126 7 3 0.033922 37.476 19.2973 3.0417 -1 0 0
127 8 1 -0.091211 1.36384 8.45701 16.7469 0 0 0
128 8 1 -0.050311 1.79049 7.0204 16.9957 0 0 0
129 8 2 -0.174311 2.34513 6.5155 15.6968 0 0 0
130 8 2 -0.174311 2.67083 5.1271 15.5036 0 0 0
131 8 1 -0.050311 2.48224 4.11277 16.556 0 0 0
132 8 1 -0.091211 3.83279 3.93231 17.3119 0 0 0
133 8 3 0.033922 0.836562 8.88541 17.6043 0 0 0
134 8 3 0.033922 0.722568 8.54136 15.8647 0 0 0
135 8 3 0.033922 2.25077 9.06072 16.5335 0 0 0
136 8 3 0.046089 2.47574 7.07303 17.8467 0 0 0
137 8 3 0.046089 0.917295 6.40992 17.2437 0 0 0
138 8 4 0.121889 2.46202 7.16178 14.8328 0 0 0
139 8 4 0.121889 2.98548 4.83631 14.5064 0 0 0
140 8 3 0.046089 2.26337 3.12812 16.1328 0 0 0
141 8 3 0.046089 1.7847 4.3626 17.3608 0 0 0
142 8 3 0.033922 3.696 3.19595 18.1091 0 0 0
143 8 3 0.033922 4.61252 3.63564 16.6043 0 0 0
144 8 3 0.033922 4.13797 4.87601 17.7733 0 0 0
145 9 1 -0.091211 34.5763 12.9 3.76609 -1 0 1
146 9 1 -0.050311 35.5216 14.0384 3.27657 -1 0 1
147 9 2 -0.174311 37.0527 13.7615 3.48363 -1 0 1
148 9 2 -0.174311 37.8059 14.215 4.52681 -1 0 1
149 9 1 -0.050311 37.1403 14.9769 5.61772 -1 0 1
150 9 1 -0.091211 38.0903 15.3274 6.7333 -1 0 1
151 9 3 0.033922 34.8196 11.9816 3.22403 -1 0 1
152 9 3 0.033922 33.5052 13.0995 3.66735 -1 0 1
153 9 3 0.033922 34.7489 12.7955 4.84119 -1 0 1
154 9 3 0.046089 35.2971 14.2235 2.22211 -1 0 1
155 9 3 0.046089 35.1127 14.8384 3.90047 -1 0 1
156 9 4 0.121889 37.5792 13.1763 2.73639 -1 0 1
157 9 4 0.121889 38.8859 14.1501 4.61332 -1 0 1
158 9 3 0.046089 36.3583 14.3584 6.06781 -1 0 1
159 9 3 0.046089 36.673 15.8536 5.15982 -1 0 1
160 9 3 0.033922 39.0113 15.856 6.47085 -1 0 1
161 9 3 0.033922 37.4865 15.9415 7.40776 -1 0 1
162 9 3 0.033922 38.3258 14.3925 7.25008 -1 0 1
163 10 1 -0.091211 11.0927 11.8447 13.342 0 0 1
164 10 1 -0.050311 11.1058 10.5372 12.5291 0 0 1
165 10 2 -0.174311 9.87716 10.504 11.608 0 0 1
166 10 2 -0.174311 9.85651 9.85312 10.4027 0 0 1
167 10 1 -0.050311 11.0369 9.1383 9.81186 0 0 1
168 10 1 -0.091211 11.1036 7.76153 10.4145 0 0 1
169 10 3 0.033922 10.8252 12.7085 12.7265 0 0 1
170 10 3 0.033922 11.9721 12.1188 13.932 0 0 1
171 10 3 0.033922 10.2757 11.6954 14.054 0 0 1
172 10 3 0.046089 12.0085 10.6136 11.916 0 0 1
173 10 3 0.046089 11.0623 9.581 13.0586 0 0 1
174 10 4 0.121889 8.86206 10.8013 11.8514 0 0 1
175 10 4 0.121889 8.9805 9.70384 9.77954 0 0 1
176 10 3 0.046089 11.9705 9.68593 9.97039 0 0 1
177 10 3 0.046089 10.7972 9.0532 8.74797 0 0 1
178 10 3 0.033922 11.572 7.10405 9.67632 0 0 1
179 10 3 0.033922 11.6295 7.69441 11.3713 0 0 1
180 10 3 0.033922 10.0999 7.3409 10.5257 0 0 1
181 11 1 -0.091211 38.3888 18.4145 10.3757 -1 0 0
182 11 1 -0.050311 38.1053 16.985 10.8811 -1 0 0
183 11 2 -0.174311 39.3023 16.5078 11.5792 -1 0 0
184 11 2 -0.174311 -0.593503 15.6918 11.0779 0 0 0
185 11 1 -0.050311 -0.518667 15.2162 9.61557 0 0 0
186 11 1 -0.091211 0.372722 14.0402 9.36401 0 0 0
187 11 3 0.033922 38.6904 19.022 11.2339 -1 0 0
188 11 3 0.033922 37.4921 18.8864 9.96355 -1 0 0
189 11 3 0.033922 39.2563 18.3725 9.71065 -1 0 0
190 11 3 0.046089 37.2994 17.017 11.6202 -1 0 0
191 11 3 0.046089 37.7921 16.304 10.0844 -1 0 0
192 11 4 0.121889 39.4519 16.8927 12.5829 -1 0 0
193 11 4 0.121889 0.281279 15.557 11.7061 0 0 0
194 11 3 0.046089 -0.282565 16.0576 8.95764 0 0 0
195 11 3 0.046089 39.3581 14.8883 9.31439 -1 0 0
196 11 3 0.033922 -0.129461 13.1982 9.84926 0 0 0
197 11 3 0.033922 0.508018 13.8205 8.30099 0 0 0
198 11 3 0.033922 1.35171 14.1877 9.82932 0 0 0
199 12 1 -0.091211 0.967648 13.1899 4.44559 0 0 0
200 12 1 -0.050311 1.92283 12.7168 5.52165 0 0 0
201 12 2 -0.174311 2.60726 13.9125 6.15893 0 0 0
202 12 2 -0.174311 3.98883 14.0083 6.29795 0 0 0
203 12 1 -0.050311 5.09223 13.1516 5.6395 0 0 0
204 12 1 -0.091211 6.40928 13.4134 6.31588 0 0 0
205 12 3 0.033922 1.61637 13.8061 3.81617 0 0 0
206 12 3 0.033922 0.175232 13.7854 4.90842 0 0 0
207 12 3 0.033922 0.564091 12.3853 3.82411 0 0 0
208 12 3 0.046089 1.39155 12.1221 6.27043 0 0 0
209 12 3 0.046089 2.6773 12.0348 5.11884 0 0 0
210 12 4 0.121889 1.8804 14.613 6.55763 0 0 0
211 12 4 0.121889 4.40924 14.8904 6.7704 0 0 0
212 12 3 0.046089 5.19916 13.3665 4.57227 0 0 0
213 12 3 0.046089 4.84123 12.0884 5.69458 0 0 0
214 12 3 0.033922 6.27074 13.3227 7.39716 0 0 0
215 12 3 0.033922 7.08485 12.6444 5.92997 0 0 0
216 12 3 0.033922 6.91258 14.3448 6.04066 0 0 0
217 13 1 -0.091211 3.10975 11.5769 8.51987 0 0 0
218 13 1 -0.050311 3.72347 10.982 9.74253 0 0 0
219 13 2 -0.174311 4.1264 12.0382 10.7632 0 0 0
220 13 2 -0.174311 3.94245 11.9425 12.1133 0 0 0
221 13 1 -0.050311 3.28753 10.8384 12.8626 0 0 0
222 13 1 -0.091211 2.6743 11.4377 14.1158 0 0 0
223 13 3 0.033922 3.8798 12.2091 8.0683 0 0 0
224 13 3 0.033922 2.23572 12.1712 8.80186 0 0 0
225 13 3 0.033922 2.71959 10.854 7.79746 0 0 0
226 13 3 0.046089 3.07828 10.1946 10.1431 0 0 0
227 13 3 0.046089 4.58902 10.3629 9.48923 0 0 0
228 13 4 0.121889 4.81583 12.8036 10.4212 0 0 0
229 13 4 0.121889 4.36388 12.7503 12.703 0 0 0
230 13 3 0.046089 3.95706 10.0072 13.1025 0 0 0
231 13 3 0.046089 2.38806 10.4536 12.3731 0 0 0
232 13 3 0.033922 3.47964 11.7219 14.7994 0 0 0
233 13 3 0.033922 2.09208 12.3485 13.9485 0 0 0
234 13 3 0.033922 2.01447 10.7961 14.7071 0 0 0
235 14 1 -0.091211 15.1264 9.14969 11.8806 0 0 0
236 14 1 -0.050311 15.0663 7.63793 12.1271 0 0 0
237 14 2 -0.174311 13.8869 7.33356 12.9338 0 0 0
238 14 2 -0.174311 13.8366 6.28081 13.8509 0 0 0
239 14 1 -0.050311 14.9418 5.28797 14.1559 0 0 0
240 14 1 -0.091211 15.5419 5.913 15.3107 0 0 0
241 14 3 0.033922 15.0632 9.59376 12.8783 0 0 0
242 14 3 0.033922 14.3201 9.34725 11.1682 0 0 0
243 14 3 0.033922 16.0883 9.41588 11.4329 0 0 0
244 14 3 0.046089 15.0105 7.04897 11.207 0 0 0
245 14 3 0.046089 15.9764 7.37202 12.6727 0 0 0
246 14 4 0.121889 13.0329 7.99849 13.0153 0 0 0
247 14 4 0.121889 12.913 6.12576 14.3996 0 0 0
248 14 3 0.046089 15.6944 5.2038 13.3665 0 0 0
249 14 3 0.046089 14.5885 4.28488 14.412 0 0 0
250 14 3 0.033922 16.4258 5.32747 15.5801 0 0 0
251 14 3 0.033922 15.9521 6.88448 15.0199 0 0 0
252 14 3 0.033922 14.8799 6.01768 16.1753 0 0 0
253 15 1 -0.091211 0.744821 20.0001 14.2424 0 0 0
254 15 1 -0.050311 1.76009 19.1605 14.9847 0 0 0
255 15 2 -0.174311 1.36259 17.6827 14.9723 0 0 0
256 15 2 -0.174311 1.78578 16.7678 15.9055 0 0 0
257 15 1 -0.050311 3.00117 17.0369 16.8353 0 0 0
258 15 1 -0.091211 4.15712 16.0016 16.5824 0 0 0
259 15 3 0.033922 0.900455 19.7727 13.1838 0 0 0
260 15 3 0.033922 0.939847 21.0491 14.4832 0 0 0
261 15 3 0.033922 -0.303274 19.758 14.4414 0 0 0
262 15 3 0.046089 2.76325 19.2664 14.5615 0 0 0
263 15 3 0.046089 1.73147 19.5894 15.9906 0 0 0
264 15 4 0.121889 0.547308 17.3602 14.3325 0 0 0
265 15 4 0.121889 1.24234 15.83 15.8502 0 0 0
266 15 3 0.046089 2.65154 16.9692 17.8696 0 0 0
267 15 3 0.046089 3.42046 18.0289 16.6437 0 0 0
268 15 3 0.033922 4.41335 16.2705 15.5535 0 0 0
269 15 3 0.033922 5.0149 16.1769 17.2382 0 0 0
270 15 3 0.033922 3.77377 14.9772 16.5982 0 0 0
271 16 1 -0.091211 11.3344 0.875389 8.15391 0 1 0
272 16 1 -0.050311 10.849 1.87854 9.2052 0 1 0
273 16 2 -0.174311 9.47895 2.25711 8.86334 0 1 0
274 16 2 -0.174311 8.31134 1.75449 9.40816 0 1 0
275 16 1 -0.050311 8.33888 0.651557 10.3517 0 1 0
276 16 1 -0.091211 7.00107 -0.124222 10.374 0 1 0
277 16 3 0.033922 10.6946 -0.0116487 8.17566 0 1 0
278 16 3 0.033922 12.3968 0.626212 8.23072 0 1 0
279 16 3 0.033922 11.2584 1.26654 7.13519 0 1 0
280 16 3 0.046089 10.98 1.44166 10.1995 0 1 0
281 16 3 0.046089 11.3989 2.81613 9.08207 0 1 0
282 16 4 0.121889 9.51101 2.98074 8.05506 0 1 0
283 16 4 0.121889 7.36106 2.08652 9.00222 0 1 0
284 16 3 0.046089 8.57863 0.919771 11.3848 0 1 0
285 16 3 0.046089 9.17076 0.00409407 10.0594 0 1 0
286 16 3 0.033922 7.1422 -1.01772 10.9891 0 1 0
287 16 3 0.033922 6.20269 0.464299 10.8354 0 1 0
288 16 3 0.033922 6.60051 -0.4066 9.39604 0 1 0
289 17 1 -0.091211 10.1061 13.8157 17.1053 0 0 0
290 17 1 -0.050311 8.67173 14.3518 17.1968 0 0 0
291 17 2 -0.174311 7.73082 13.1813 17.3096 0 0 0
292 17 2 -0.174311 7.02112 12.5603 16.2975 0 0 0
293 17 1 -0.050311 7.08831 12.7444 14.8547 0 0 0
294 17 1 -0.091211 7.18188 11.4304 14.04 0 0 0
295 17 3 0.033922 10.2376 13.1472 17.961 0 0 0
296 17 3 0.033922 10.9012 14.567 17.1178 0 0 0
297 17 3 0.033922 10.2494 13.2245 16.1962 0 0 0
298 17 3 0.046089 8.59162 15.0709 18.0173 0 0 0
299 17 3 0.046089 8.4339 14.921 16.2934 0 0 0
300 17 4 0.121889 7.48563 12.9012 18.3291 0 0 0
301 17 4 0.121889 6.51898 11.6934 16.7151 0 0 0
302 17 3 0.046089 7.92114 13.3445 14.4765 0 0 0
303 17 3 0.046089 6.15106 13.1926 14.5121 0 0 0
304 17 3 0.033922 6.98619 11.5126 12.9669 0 0 0
305 17 3 0.033922 8.17949 10.9815 14.0386 0 0 0
306 17 3 0.033922 6.5087 10.731 14.5444 0 0 0
307 18 1 -0.091211 38.006 9.35324 5.28673 -1 0 1
308 18 1 -0.050311 38.8766 9.51083 6.51878 -1 0 1
309 18 2 -0.174311 38.4597 10.6824 7.4383 -1 0 1
310 18 2 -0.174311 39.0689 10.9842 8.61633 -1 0 1
311 18 1 -0.050311 -0.541525 10.2359 9.09293 0 0 1
312 18 1 -0.091211 -0.602382 10.0854 10.5953 0 0 1
313 18 3 0.033922 38.3293 8.51938 4.65684 -1 0 1
314 18 3 0.033922 37.9144 10.2445 4.65914 -1 0 1
315 18 3 0.033922 37.015 9.12063 5.68741 -1 0 1
316 18 3 0.046089 38.8783 8.62328 7.15817 -1 0 1
317 18 3 0.046089 -0.974323 9.65858 6.16662 0 0 1
318 18 4 0.121889 37.6675 11.3039 7.03313 -1 0 1
319 18 4 0.121889 38.6801 11.7648 9.26242 -1 0 1
320 18 3 0.046089 0.300446 10.8738 8.80866 0 0 1
321 18 3 0.046089 -0.460444 9.26195 8.60158 0 0 1
322 18 3 0.033922 -0.378508 11.0064 11.1414 0 0 1
323 18 3 0.033922 39.3191 9.72579 10.9905 -1 0 1
324 18 3 0.033922 0.176185 9.39433 10.9314 0 0 1
325 19 1 -0.091211 7.92282 8.77914 2.15505 0 0 0
326 19 1 -0.050311 8.9772 9.86297 2.16025 0 0 0
327 19 2 -0.174311 8.62561 11.1527 1.37397 0 0 0
328 19 2 -0.174311 9.40398 12.2864 1.30638 0 0 0
329 19 1 -0.050311 10.7476 12.5114 1.96631 0 0 0
330 19 1 -0.091211 11.8285 11.6686 1.2439 0 0 0
331 19 3 0.033922 7.02212 9.20092 2.61059 0 0 0
332 19 3 0.033922 8.25841 7.94396 2.77671 0 0 0
333 19 3 0.033922 7.69095 8.36372 1.17005 0 0 0
334 19 3 0.046089 9.13848 10.1755 3.19607 0 0 0
335 19 3 0.046089 9.89592 9.37769 1.818 0 0 0
336 19 4 0.121889 7.87494 11.2021 0.591608 0 0 0
337 19 4 0.121889 9.05788 13.0178 20.654 0 0 -1
338 19 3 0.046089 10.7622 12.1346 2.99316 0 0 0
339 19 3 0.046089 11.0052 13.5741 1.93601 0 0 0
340 19 3 0.033922 11.5597 11.5938 20.2572 0 0 -1
341 19 3 0.033922 12.8304 12.0901 1.36726 0 0 0
342 19 3 0.033922 11.828 10.6996 1.75147 0 0 0
343 20 1 -0.091211 15.3209 19.695 15.7611 0 -1 0
344 20 1 -0.050311 16.2366 18.9423 14.8205 0 -1 0
345 20 2 -0.174311 15.84 19.3741 13.451 0 -1 0
346 20 2 -0.174311 16.4446 20.354 12.7153 0 -1 0
347 20 1 -0.050311 17.5394 21.3305 13.1444 0 -1 0
348 20 1 -0.091211 18.9081 20.976 12.5735 0 -1 0
349 20 3 0.033922 15.6329 20.7434 15.7502 0 -1 0
350 20 3 0.033922 15.3613 19.2422 16.7561 0 -1 0
351 20 3 0.033922 14.2625 19.6041 15.5002 0 -1 0
352 20 3 0.046089 17.2793 19.1845 15.0459 0 -1 0
353 20 3 0.046089 16.2169 17.8574 14.9586 0 -1 0
354 20 4 0.121889 15.0339 18.8315 12.9675 0 -1 0
355 20 4 0.121889 15.9861 20.6175 11.7675 0 -1 0
356 20 3 0.046089 17.6058 21.4493 14.2298 0 -1 0
357 20 3 0.046089 17.2243 22.3006 12.7492 0 -1 0
358 20 3 0.033922 18.8352 21.1247 11.4922 0 -1 0
359 20 3 0.033922 19.8075 21.475 12.9458 0 -1 0
360 20 3 0.033922 19.0354 19.9152 12.8083 0 -1 0
361 21 1 -0.091211 1.4018 2.46729 12.4075 0 0 0
362 21 1 -0.050311 2.16002 1.60837 13.317 0 0 0
363 21 2 -0.174311 1.90163 0.141327 12.9845 0 0 0
364 21 2 -0.174311 2.5809 -0.803103 13.7278 0 0 0
365 21 1 -0.050311 3.63466 -0.581581 14.7748 0 0 0
366 21 1 -0.091211 3.86942 -1.94985 15.4447 0 0 0
367 21 3 0.033922 1.54956 2.1589 11.3685 0 0 0
368 21 3 0.033922 1.68405 3.52283 12.4601 0 0 0
369 21 3 0.033922 0.333 2.36671 12.6179 0 0 0
370 21 3 0.046089 3.23768 1.75557 13.2001 0 0 0
371 21 3 0.046089 1.93233 1.78201 14.3728 0 0 0
372 21 4 0.121889 1.06837 -0.13343 12.3456 0 0 0
373 21 4 0.121889 2.45859 -1.85709 13.4995 0 0 0
374 21 3 0.046089 3.4341 0.129651 15.5813 0 0 0
375 21 3 0.046089 4.55196 -0.205872 14.3121 0 0 0
376 21 3 0.033922 4.23931 23.1904 14.7637 0 -1 0
377 21 3 0.033922 4.61309 -1.78314 16.2295 0 0 0
378 21 3 0.033922 2.93622 23.6044 15.8893 0 -1 0
379 22 1 -0.091211 9.58941 23.3543 15.0739 0 -1 0
380 22 1 -0.050311 8.75965 -1.29985 15.4123 0 0 0
381 22 2 -0.174311 8.87368 -0.221967 14.3454 0 0 0
382 22 2 -0.174311 8.70262 1.16211 14.3865 0 0 0
383 22 1 -0.050311 8.37033 1.87038 15.6523 0 0 0
384 22 1 -0.091211 6.92739 2.39164 15.5207 0 0 0
385 22 3 0.033922 9.01522 22.7088 14.4029 0 -1 0
386 22 3 0.033922 9.7883 22.8239 16.0096 0 -1 0
387 22 3 0.033922 10.5452 23.5841 14.5939 0 -1 0
388 22 3 0.046089 7.68634 -1.51069 15.4285 0 0 0
389 22 3 0.046089 9.12563 -0.936316 16.3769 0 0 0
390 22 4 0.121889 8.93326 -0.613991 13.335 0 0 0
391 22 4 0.121889 8.58202 1.75566 13.4859 0 0 0
392 22 3 0.046089 9.15166 2.63464 15.6979 0 0 0
393 22 3 0.046089 8.4637 1.35882 16.6147 0 0 0
394 22 3 0.033922 6.79028 3.02534 14.6396 0 0 0
395 22 3 0.033922 6.34266 1.46793 15.482 0 0 0
396 22 3 0.033922 6.7962 2.93235 16.4625 0 0 0
397 23 1 -0.091211 6.61723 5.64765 19.7984 0 0 -1
398 23 1 -0.050311 5.48524 5.3273 0.641323 0 0 0
399 23 2 -0.174311 5.5516 6.17978 1.88952 0 0 0
400 23 2 -0.174311 4.83883 7.32 2.19881 0 0 0
401 23 1 -0.050311 3.94413 7.99622 1.29144 0 0 0
402 23 1 -0.091211 2.62717 8.38237 1.86056 0 0 0
403 23 3 0.033922 6.78558 4.91678 19.0022 0 0 -1
404 23 3 0.033922 7.55624 5.77905 20.344 0 0 -1
405 23 3 0.033922 6.34341 6.53598 19.2218 0 0 -1
406 23 3 0.046089 4.60154 5.47106 20.0838 0 0 -1
407 23 3 0.046089 5.60801 4.27708 0.921581 0 0 0
408 23 4 0.121889 6.1902 5.82322 2.69144 0 0 0
409 23 4 0.121889 5.03207 7.82254 3.14118 0 0 0
410 23 3 0.046089 3.72801 7.55516 20.385 0 0 -1
411 23 3 0.046089 4.49492 8.90149 1.01993 0 0 0
412 23 3 0.033922 1.87911 8.73673 1.14538 0 0 0
413 23 3 0.033922 2.1513 7.50798 2.314 0 0 0
414 23 3 0.033922 2.73424 9.00646 2.75254 0 0 0
415 24 1 -0.091211 10.6216 16.4857 20.0677 0 0 -1
416 24 1 -0.050311 9.40352 17.076 0.668577 0 0 0
417 24 2 -0.174311 8.27398 17.1841 19.7745 0 0 -1
418 24 2 -0.174311 6.95144 17.0698 20.0721 0 0 -1
419 24 1 -0.050311 6.22681 17.0615 1.30818 0 0 0
420 24 1 -0.091211 6.20387 15.506 1.73315 0 0 0
421 24 3 0.033922 10.2895 15.6665 19.4233 0 0 -1
422 24 3 0.033922 11.329 16.0362 0.699699 0 0 0
423 24 3 0.033922 11.1865 17.2742 19.562 0 0 -1
424 24 3 0.046089 9.19687 16.4489 1.54071 0 0 0
425 24 3 0.046089 9.72018 18.0787 0.970114 0 0 0
426 24 4 0.121889 8.45542 17.3925 18.7249 0 0 -1
427 24 4 0.121889 6.30751 17.3119 19.2326 0 0 -1
428 24 3 0.046089 5.26219 17.4989 1.03451 0 0 0
429 24 3 0.046089 6.62589 17.6495 2.13984 0 0 0
430 24 3 0.033922 7.21645 15.1128 1.86278 0 0 0
431 24 3 0.033922 5.68306 15.3304 2.67895 0 0 0
432 24 3 0.033922 5.71982 14.8793 0.978456 0 0 0
433 25 1 -0.091211 5.74697 7.28363 15.2513 0 0 0
434 25 1 -0.050311 6.72404 6.254 14.6302 0 0 0
435 25 2 -0.174311 7.20149 6.81588 13.2854 0 0 0
436 25 2 -0.174311 8.05391 6.06774 12.427 0 0 0
437 25 1 -0.050311 8.41292 4.58899 12.5582 0 0 0
438 25 1 -0.091211 9.53602 4.30452 11.5222 0 0 0
439 25 3 0.033922 6.26419 8.19608 15.562 0 0 0
440 25 3 0.033922 5.38564 6.84211 16.1846 0 0 0
441 25 3 0.033922 5.03401 7.54619 14.4643 0 0 0
442 25 3 0.046089 7.5832 6.27112 15.3072 0 0 0
443 25 3 0.046089 6.25029 5.28598 14.4429 0 0 0
444 25 4 0.121889 7.095 7.86893 13.0452 0 0 0
445 25 4 0.121889 8.28181 6.56716 11.4908 0 0 0
446 25 3 0.046089 7.48212 4.03808 12.3946 0 0 0
447 25 3 0.046089 8.84535 4.37458 13.5399 0 0 0
448 25 3 0.033922 10.2743 5.1109 11.5587 0 0 0
449 25 3 0.033922 10.0257 3.34055 11.6883 0 0 0
450 25 3 0.033922 9.17683 4.33629 10.4894 0 0 0
451 26 1 -0.091211 39.3057 21.9493 11.846 -1 -1 0
452 26 1 -0.050311 -0.984864 21.7085 10.4103 0 -1 0
453 26 2 -0.174311 0.365361 20.9309 10.4804 0 -1 0
454 26 2 -0.174311 1.59532 21.5229 10.5939 0 -1 0
455 26 1 -0.050311 1.82936 23.0073 10.6129 0 -1 0
456 26 1 -0.091211 3.29962 23.3082 10.6809 0 -1 0
457 26 3 0.033922 39.1405 20.9905 12.346 -1 -1 0
458 26 3 0.033922 38.4352 22.602 11.7331 -1 -1 0
459 26 3 0.033922 -0.909745 22.5631 12.4652 0 -1 0
460 26 3 0.046089 39.1911 21.229 9.71992 -1 -1 0
461 26 3 0.046089 -0.829282 22.6843 9.94094 0 -1 0
462 26 4 0.121889 0.27439 19.8508 10.5357 0 -1 0
463 26 4 0.121889 2.44776 20.851 10.5885 0 -1 0
464 26 3 0.046089 1.35782 23.5172 11.458 0 -1 0
465 26 3 0.046089 1.47443 23.3986 9.65502 0 -1 0
466 26 3 0.033922 3.43192 -1.52307 10.7841 0 0 0
467 26 3 0.033922 3.77636 22.8617 11.5583 0 -1 0
468 26 3 0.033922 3.79063 23.0323 9.74315 0 -1 0
469 27 1 -0.091211 13.18 11.7827 8.63255 0 0 0
470 27 1 -0.050311 14.1739 12.2114 7.50209 0 0 0
471 27 2 -0.174311 15.142 11.1436 7.22625 0 0 0
472 27 2 -0.174311 16.4891 11.2059 7.25516 0 0 0
473 27 1 -0.050311 17.3754 12.4666 7.49155 0 0 0
474 27 1 -0.091211 18.2522 12.794 6.27095 0 0 0
475 27 3 0.033922 12.492 12.6089 8.83422 0 0 0
476 27 3 0.033922 13.7442 11.5203 9.53223 0 0 0
477 27 3 0.033922 12.6013 10.9106 8.31452 0 0 0
478 27 3 0.046089 13.569 12.4134 6.61331 0 0 0
479 27 3 0.046089 14.5834 13.1883 7.77518 0 0 0
480 27 4 0.121889 14.6806 10.1787 7.0414 0 0 0
481 27 4 0.121889 16.9668 10.2404 7.12176 0 0 0
482 27 3 0.046089 18.1233 12.2183 8.25019 0 0 0
483 27 3 0.046089 16.8003 13.3335 7.8299 0 0 0
484 27 3 0.033922 18.9529 11.9779 6.07174 0 0 0
485 27 3 0.033922 17.6148 13.0242 5.41226 0 0 0
486 27 3 0.033922 18.8182 13.699 6.51008 0 0 0
487 28 1 -0.091211 10.1419 23.4542 20.4949 0 -1 -1
488 28 1 -0.050311 8.83097 22.9748 1.06664 0 -1 0
489 28 2 -0.174311 8.62965 21.5794 20.6083 0 -1 -1
490 28 2 -0.174311 7.62862 21.1272 19.8157 0 -1 -1
491 28 1 -0.050311 6.43959 21.9155 19.2637 0 -1 -1
492 28 1 -0.091211 5.22606 20.942 19.0836 0 -1 -1
493 28 3 0.033922 10.0253 23.6183 19.4197 0 -1 -1
494 28 3 0.033922 11.0294 22.8179 20.559 0 -1 -1
495 28 3 0.033922 10.4413 -1.5449 0.946512 0 0 0
496 28 3 0.046089 8.89548 23.023 2.15755 0 -1 0
497 28 3 0.046089 7.96758 23.5245 0.680606 0 -1 0
498 28 4 0.121889 9.46526 20.9317 0.782789 0 -1 0
499 28 4 0.121889 7.60955 20.0584 19.6276 0 -1 -1
500 28 3 0.046089 6.75703 22.3805 18.3259 0 -1 -1
501 28 3 0.046089 6.07906 22.7771 19.833 0 -1 -1
502 28 3 0.033922 4.30857 21.4989 18.872 0 -1 -1
503 28 3 0.033922 5.39351 20.3352 18.189 0 -1 -1
504 28 3 0.033922 5.09477 20.2722 19.9384 0 -1 -1
505 29 1 -0.091211 10.3569 -0.554767 4.83651 0 0 0
506 29 1 -0.050311 9.36056 0.580062 4.69364 0 0 0
507 29 2 -0.174311 9.61893 1.16322 3.29863 0 0 0
508 29 2 -0.174311 9.11096 2.42653 2.87265 0 0 0
509 29 1 -0.050311 8.14494 3.30856 3.72483 0 0 0
510 29 1 -0.091211 8.99722 4.45695 4.30429 0 0 0
511 29 3 0.033922 11.3416 -0.0789815 4.81083 0 0 0
512 29 3 0.033922 10.3946 -1.28992 4.02737 0 0 0
513 29 3 0.033922 10.2463 -1.021 5.81985 0 0 0
514 29 3 0.046089 8.32888 0.221591 4.75547 0 0 0
515 29 3 0.046089 9.43319 1.38926 5.42611 0 0 0
516 29 4 0.121889 10.3287 0.598642 2.70234 0 0 0
517 29 4 0.121889 9.41755 2.67025 1.86044 0 0 0
518 29 3 0.046089 7.628 2.72646 4.4933 0 0 0
519 29 3 0.046089 7.35112 3.59797 3.03003 0 0 0
520 29 3 0.033922 9.89827 4.05549 4.77716 0 0 0
521 29 3 0.033922 9.44205 5.03999 3.49263 0 0 0
522 29 3 0.033922 8.50964 5.1421 5.00389 0 0 0
523 30 1 -0.091211 10.2373 21.5865 9.21275 0 0 1
524 30 1 -0.050311 10.4744 20.6239 8.09044 0 0 1
525 30 2 -0.174311 11.2588 21.3016 6.96626 0 0 1
526 30 2 -0.174311 11.0785 21.4351 5.59333 0 0 1
527 30 1 -0.050311 9.93877 21.0327 4.73414 0 0 1
528 30 1 -0.091211 10.4769 20.4615 3.41932 0 0 1
529 30 3 0.033922 9.91558 22.5674 8.85103 0 0 1
530 30 3 0.033922 11.1603 21.7069 9.78743 0 0 1
531 30 3 0.033922 9.45125 21.1928 9.86369 0 0 1
532 30 3 0.046089 11.0149 19.7386 8.43798 0 0 1
533 30 3 0.046089 9.49754 20.3847 7.66016 0 0 1
534 30 4 0.121889 12.1979 21.7042 7.33257 0 0 1
535 30 4 0.121889 11.8874 21.8661 5.01208 0 0 1
536 30 3 0.046089 9.33269 21.9242 4.54826 0 0 1
537 30 3 0.046089 9.2593 20.3899 5.30135 0 0 1
538 30 3 0.033922 11.2084 19.6721 3.61502 0 0 1
539 30 3 0.033922 9.64187 20.0351 2.85574 0 0 1
540 30 3 0.033922 11.0357 21.2439 2.89753 0 0 1
541 31 1 -0.091211 24.8228 0.284229 15.0688 0 1 0
542 31 1 -0.050311 24.5436 1.1998 16.2932 0 1 0
543 31 2 -0.174311 23.1053 1.56871 16.3944 0 1 0
544 31 2 -0.174311 22.2693 1.29796 17.4411 0 1 0
545 31 1 -0.050311 22.5432 0.395421 18.6687 0 1 0
546 31 1 -0.091211 22.4329 1.25602 19.9667 0 1 0
547 31 3 0.033922 24.5622 -0.750883 15.308 0 1 0
548 31 3 0.033922 25.8773 0.182456 14.7961 0 1 0
549 31 3 0.033922 24.2615 0.594942 14.1827 0 1 0
550 31 3 0.046089 24.8501 0.68462 17.2082 0 1 0
551 31 3 0.046089 25.1328 2.11408 16.1768 0 1 0
552 31 4 0.121889 22.6356 2.05516 15.5454 0 1 0
553 31 4 0.121889 21.2383 1.6148 17.3193 0 1 0
554 31 3 0.046089 23.5058 -0.123844 18.6873 0 1 0
555 31 3 0.046089 21.7593 -0.354391 18.81 0 1 0
556 31 3 0.033922 23.411 1.72001 20.124 0 1 0
557 31 3 0.033922 21.634 2.0033 19.963 0 1 0
558 31 3 0.033922 22.1805 0.570477 0.709893 0 1 1
559 32 1 -0.091211 16.9131 0.677678 3.87702 0 1 0
560 32 1 -0.050311 16.0536 0.283606 5.08869 0 1 0
561 32 2 -0.174311 16.1487 -1.20569 5.17042 0 1 0
562 32 2 -0.174311 15.959 -1.9122 6.35398 0 1 0
563 32 1 -0.050311 15.9265 -1.27461 7.70403 0 1 0
564 32 1 -0.091211 16.6396 23.6254 8.61045 0 0 0
565 32 3 0.033922 16.7715 1.75286 3.73382 0 1 0
566 32 3 0.033922 16.5186 0.220647 2.96486 0 1 0
567 32 3 0.033922 17.9751 0.45723 4.01961 0 1 0
568 32 3 0.046089 16.3878 0.854256 5.96006 0 1 0
569 32 3 0.046089 15.0311 0.591875 4.85166 0 1 0
570 32 4 0.121889 16.2767 -1.8894 4.33728 0 1 0
571 32 4 0.121889 15.8906 22.918 6.30364 0 0 0
572 32 3 0.046089 14.9243 -1.11315 8.11184 0 1 0
573 32 3 0.046089 16.4178 -0.298136 7.74513 0 1 0
574 32 3 0.033922 16.8582 -1.80984 9.57026 0 1 0
575 32 3 0.033922 16.025 22.7364 8.77981 0 0 0
576 32 3 0.033922 17.5376 23.2433 8.11625 0 0 0
577 33 1 -0.091211 12.0125 16.3935 11.5614 0 0 0
578 33 1 -0.050311 13.0977 16.1235 12.6254 0 0 0
579 33 2 -0.174311 12.4772 15.2715 13.707 0 0 0
580 33 2 -0.174311 13.1558 14.6188 14.7122 0 0 0
581 33 1 -0.050311 14.6351 14.812 14.9217 0 0 0
582 33 1 -0.091211 15.1279 15.1411 16.3435 0 0 0
583 33 3 0.033922 11.1074 16.6482 12.1205 0 0 0
584 33 3 0.033922 11.8379 15.5721 10.8604 0 0 0
585 33 3 0.033922 12.2084 17.2605 10.9237 0 0 0
586 33 3 0.046089 14.0105 15.7108 12.1861 0 0 0
587 33 3 0.046089 13.4724 17.0779 13.0067 0 0 0
588 33 4 0.121889 11.4412 14.9534 13.6476 0 0 0
589 33 4 0.121889 12.549 14.0542 15.4129 0 0 0
590 33 3 0.046089 15.0154 15.6461 14.3249 0 0 0
591 33 3 0.046089 15.0821 13.8363 14.7096 0 0 0
592 33 3 0.033922 14.7274 15.9612 16.9465 0 0 0
593 33 3 0.033922 14.9211 14.2529 16.9476 0 0 0
594 33 3 0.033922 16.2177 15.2367 16.3435 0 0 0
595 34 1 -0.091211 15.4628 12.3449 12.0031 0 0 0
596 34 1 -0.050311 16.1475 13.372 11.1538 0 0 0
597 34 2 -0.174311 16.6012 14.6066 12.054 0 0 0
598 34 2 -0.174311 17.0363 15.7916 11.6731 0 0 0
599 34 1 -0.050311 17.0022 16.2139 10.1979 0 0 0
600 34 1 -0.091211 17.8552 17.4052 9.90108 0 0 0
601 34 3 0.033922 16.0248 11.8606 12.807 0 0 0
602 34 3 0.033922 15.0611 11.5502 11.3676 0 0 0
603 34 3 0.033922 14.6368 12.8212 12.5392 0 0 0
604 34 3 0.046089 16.9432 12.921 10.5538 0 0 0
605 34 3 0.046089 15.4926 13.8945 10.4504 0 0 0
606 34 4 0.121889 16.746 14.4895 13.1233 0 0 0
607 34 4 0.121889 17.3139 16.5599 12.3877 0 0 0
608 34 3 0.046089 15.964 16.4411 9.93861 0 0 0
609 34 3 0.046089 17.3337 15.4061 9.53902 0 0 0
610 34 3 0.033922 18.9162 17.2712 10.1311 0 0 0
611 34 3 0.033922 17.8834 17.6769 8.84185 0 0 0
612 34 3 0.033922 17.4102 18.2448 10.4429 0 0 0
613 35 1 -0.091211 35.7808 14.3605 12.3885 -1 0 0
614 35 1 -0.050311 35.2835 13.2696 13.364 -1 0 0
615 35 2 -0.174311 35.8853 12.0179 12.7413 -1 0 0
616 35 2 -0.174311 35.1676 10.8047 12.7138 -1 0 0
617 35 1 -0.050311 33.8516 10.5048 13.3854 -1 0 0
618 35 1 -0.091211 33.8234 9.04981 13.8631 -1 0 0