ITEM: TIMESTEP
60300
ITEM: NUMBER OF ATOMS
1800
ITEM: BOX BOUNDS pp pp pp
-2.6933156526351034e+00 4.1501331152634322e+01
-1.4541488030296961e+00 2.3062804303030170e+01
1.1761393094480894e+00 2.0077594190551672e+01
ITEM: ATOMS id mol type q x y z ix iy iz
1 1 1 -0.091211 2.51697 12.2081 9.66139 0 -1 0
2 1 1 -0.050311 2.51814 10.938 10.4532 0 -1 0
3 1 2 -0.174311 3.07083 9.90339 9.57929 0 -1 0
4 1 2 -0.174311 3.72255 8.77735 10.0396 0 -1 0
5 1 1 -0.050311 4.05264 8.45349 11.4768 0 -1 0
6 1 1 -0.091211 4.67112 7.01839 11.5173 0 -1 0
7 1 3 0.033922 3.53967 12.5952 9.69069 0 -1 0
8 1 3 0.033922 1.84765 12.9289 10.1401 0 -1 0
9 1 3 0.033922 2.16513 12.1621 8.62662 0 -1 0
10 1 3 0.046089 3.10129 11.0908 11.366 0 -1 0
11 1 3 0.046089 1.50931 10.6257 10.7384 0 -1 0
12 1 4 0.121889 3.06484 10.0256 8.50084 0 -1 0
13 1 4 0.121889 3.93403 8.09299 9.22416 0 -1 0
14 1 3 0.046089 3.20872 8.56608 12.1636 0 -1 0
15 1 3 0.046089 4.87102 9.09502 11.8164 0 -1 0
16 1 3 0.033922 5.64638 7.1805 11.0491 0 -1 0
17 1 3 0.033922 4.71587 6.69704 12.562 0 -1 0
18 1 3 0.033922 4.07038 6.36807 10.8748 0 -1 0
19 2 1 -0.091211 10.8001 3.81785 15.9668 0 0 0
20 2 1 -0.050311 10.8169 2.9373 14.7551 0 0 0
21 2 2 -0.174311 10.2005 3.47215 13.4677 0 0 0
22 2 2 -0.174311 9.65421 2.79035 12.4185 0 0 0
23 2 1 -0.050311 9.6348 1.2379 12.395 0 0 0
24 2 1 -0.091211 8.88692 0.627168 11.2048 0 0 0
25 2 3 0.033922 9.84887 4.2607 16.2761 0 0 0
26 2 3 0.033922 11.395 4.67254 15.6318 0 0 0
27 2 3 0.033922 11.1498 3.32718 16.8798 0 0 0
28 2 3 0.046089 11.8629 2.67041 14.5787 0 0 0
29 2 3 0.046089 10.2682 2.02927 15.0216 0 0 0
30 2 4 0.121889 10.1405 4.54802 13.3378 0 0 0
31 2 4 0.121889 9.19006 3.28293 11.57 0 0 0
32 2 3 0.046089 9.13287 0.939926 13.3201 0 0 0
33 2 3 0.046089 10.6862 0.936317 12.4078 0 0 0
34 2 3 0.033922 8.95875 -0.464181 11.1856 0 0 0
35 2 3 0.033922 7.81456 0.843041 11.1956 0 0 0
36 2 3 0.033922 9.24962 1.07605 10.2755 0 0 0
37 3 1 -0.091211 0.4505 3.97459 14.0686 0 0 0
38 3 1 -0.050311 1.90647 3.68308 13.8363 0 0 0
39 3 2 -0.174311 2.20881 2.2179 13.9189 0 0 0
40 3 2 -0.174311 3.48754 1.62265 13.8839 0 0 0
41 3 1 -0.050311 4.7199 2.36231 13.4534 0 0 0
42 3 1 -0.091211 5.23164 2.00414 12.0241 0 0 0
43 3 3 0.033922 -0.219763 3.43482 13.3933 0 0 0
44 3 3 0.033922 0.292629 5.057 14.0627 0 0 0
45 3 3 0.033922 0.183173 3.67955 15.0875 0 0 0
46 3 3 0.046089 2.14884 3.95206 12.8041 0 0 0
47 3 3 0.046089 2.61552 4.23851 14.4571 0 0 0
48 3 4 0.121889 1.4012 1.5026 14.0376 0 0 0
49 3 4 0.121889 3.6134 0.589968 14.1932 0 0 0
50 3 3 0.046089 5.52659 2.17606 14.1684 0 0 0
51 3 3 0.046089 4.54774 3.43974 13.5313 0 0 0
52 3 3 0.033922 6.19316 2.50074 11.8645 0 0 0
53 3 3 0.033922 5.40571 0.95914 11.7516 0 0 0
54 3 3 0.033922 4.55597 2.34597 11.2346 0 0 0
55 4 1 -0.091211 2.73603 22.7156 12.3285 0 -1 0
56 4 1 -0.050311 1.38136 -1.16677 12.0551 0 0 0
57 4 2 -0.174311 0.232267 22.3791 12.0197 0 -1 0
58 4 2 -0.174311 -0.407919 21.8996 10.8897 0 -1 0
59 4 1 -0.050311 0.0847636 22.1243 9.4712 0 -1 0
60 4 1 -0.091211 -1.06506 22.1015 8.47057 0 -1 0
61 4 3 0.033922 3.49409 -1.01554 12.3953 0 0 0
62 4 3 0.033922 3.02101 21.9822 11.5686 0 -1 0
63 4 3 0.033922 2.81235 22.3373 13.3521 0 -1 0
64 4 3 0.046089 1.24791 -0.425045 12.8479 0 0 0
65 4 3 0.046089 1.3995 -0.603952 11.1172 0 0 0
66 4 4 0.121889 -0.0265613 21.967 12.9898 0 -1 0
67 4 4 0.121889 -1.24848 21.2805 11.1866 0 -1 0
68 4 3 0.046089 0.80293 21.3245 9.26833 0 -1 0
69 4 3 0.046089 0.636273 23.0647 9.38112 0 -1 0
70 4 3 0.033922 -1.89252 22.7675 8.73198 0 -1 0
71 4 3 0.033922 -0.716119 22.5577 7.53957 0 -1 0
72 4 3 0.033922 -1.48851 21.1165 8.25338 0 -1 0
73 5 1 -0.091211 -0.506736 4.28272 6.2187 0 0 0
74 5 1 -0.050311 -1.80549 4.65763 5.58127 0 0 0
75 5 2 -0.174311 41.2102 3.65113 5.74327 -1 0 0
76 5 2 -0.174311 40.0028 4.01514 6.18173 -1 0 0
77 5 1 -0.050311 39.5437 5.40015 6.60397 -1 0 0
78 5 1 -0.091211 38.0535 5.61085 6.5889 -1 0 0
79 5 3 0.033922 0.249466 4.97942 5.84536 0 0 0
80 5 3 0.033922 -0.174461 3.27424 5.95577 0 0 0
81 5 3 0.033922 -0.734037 4.36958 7.2852 0 0 0
82 5 3 0.046089 -2.06816 5.68122 5.86384 0 0 0
83 5 3 0.046089 -1.58536 4.82267 4.52252 0 0 0
84 5 4 0.121889 41.3067 2.58236 5.58086 -1 0 0
85 5 4 0.121889 39.2807 3.20806 6.25301 -1 0 0
86 5 3 0.046089 39.8483 6.20669 5.93067 -1 0 0
87 5 3 0.046089 39.9254 5.51932 7.62216 -1 0 0
88 5 3 0.033922 37.5311 4.70163 6.90049 -1 0 0
89 5 3 0.033922 37.7647 6.30408 7.38429 -1 0 0
90 5 3 0.033922 37.6659 5.84959 5.59419 -1 0 0
91 6 1 -0.091211 10.741 6.4865 1.80882 0 0 1
92 6 1 -0.050311 11.7774 5.70461 2.6311 0 0 1
93 6 2 -0.174311 11.3478 4.40199 2.98204 0 0 1
94 6 2 -0.174311 11.904 3.63378 4.04744 0 0 1
95 6 1 -0.050311 13.1685 4.02569 4.8899 0 0 1
96 6 1 -0.091211 12.7606 4.46077 6.28933 0 0 1
97 6 3 0.033922 9.89441 6.64462 2.48336 0 0 1
98 6 3 0.033922 10.467 5.95132 19.7964 0 0 0
99 6 3 0.033922 11.2517 7.40312 1.49976 0 0 1
100 6 3 0.046089 12.7721 5.61674 2.18439 0 0 1
101 6 3 0.046089 12.0388 6.19503 3.57334 0 0 1
102 6 4 0.121889 10.375 4.08868 2.61678 0 0 1
103 6 4 0.121889 11.4807 2.68646 4.36584 0 0 1
104 6 3 0.046089 13.6582 4.84458 4.35498 0 0 1
105 6 3 0.046089 13.7581 3.10553 4.93653 0 0 1
106 6 3 0.033922 13.6764 4.83956 6.75239 0 0 1
107 6 3 0.033922 12.0443 5.28478 6.35658 0 0 1
108 6 3 0.033922 12.2878 3.64325 6.84132 0 0 1
109 7 1 -0.091211 35.3447 21.3678 3.95022 -1 0 0
110 7 1 -0.050311 35.2779 22.4513 2.94541 -1 0 0
111 7 2 -0.174311 33.9188 -1.49085 2.74979 -1 1 0
112 7 2 -0.174311 33.4932 -0.665944 1.77212 -1 1 0
113 7 1 -0.050311 34.2297 -0.152358 19.5122 -1 1 -1
114 7 1 -0.091211 34.523 1.3054 19.6607 -1 1 -1
115 7 3 0.033922 34.567 20.6685 3.62947 -1 0 0
116 7 3 0.033922 34.9381 21.7319 4.89822 -1 0 0
117 7 3 0.033922 36.3487 20.9534 4.08009 -1 0 0
118 7 3 0.046089 35.9078 -1.28107 3.37468 -1 1 0
119 7 3 0.046089 35.6599 22.138 1.96943 -1 0 0
120 7 4 0.121889 33.1778 22.6664 3.45655 -1 0 0
121 7 4 0.121889 32.5024 -0.302956 2.02606 -1 1 0
122 7 3 0.046089 33.6836 -0.402919 18.5981 -1 1 -1
123 7 3 0.046089 35.1916 -0.672985 19.4972 -1 1 -1
124 7 3 0.033922 34.8658 1.63776 1.74351 -1 1 0
125 7 3 0.033922 35.2431 1.72068 18.9496 -1 1 -1
126 7 3 0.033922 33.5998 1.85902 19.4666 -1 1 -1
127 8 1 -0.091211 38.0278 8.20274 2.39542 -1 0 1
128 8 1 -0.050311 38.8391 8.694 3.59539 -1 0 1
129 8 2 -0.174311 39.7362 9.74469 3.11354 -1 0 1
130 8 2 -0.174311 41.0972 9.67186 2.87847 -1 0 1
131 8 1 -0.050311 -2.2563 8.51248 3.33582 0 0 1
132 8 1 -0.091211 -0.918863 8.43576 2.57542 0 0 1
133 8 3 0.033922 37.4917 7.29096 2.67436 -1 0 1
134 8 3 0.033922 38.7553 7.86395 1.65207 -1 0 1
135 8 3 0.033922 37.407 8.97071 1.92477 -1 0 1
136 8 3 0.046089 38.1612 9.01538 4.39151 -1 0 1
137 8 3 0.046089 39.4199 7.87826 4.03563 -1 0 1
138 8 4 0.121889 39.2774 10.6802 2.80967 -1 0 1
139 8 4 0.121889 -2.68795 10.5213 2.34108 0 0 1
140 8 3 0.046089 41.36 7.59289 3.20746 -1 0 1
141 8 3 0.046089 -1.95613 8.57188 4.38606 0 0 1
142 8 3 0.033922 -0.273829 7.6199 2.91438 0 0 1
143 8 3 0.033922 -1.11238 8.22685 1.51923 0 0 1
144 8 3 0.033922 -0.300875 9.32912 2.70423 0 0 1
145 9 1 -0.091211 33.0325 18.6318 6.64678 -1 0 1
146 9 1 -0.050311 34.2165 18.7953 7.52409 -1 0 1
147 9 2 -0.174311 34.8375 20.215 7.44885 -1 0 1
148 9 2 -0.174311 36.1856 20.5751 7.59445 -1 0 1
149 9 1 -0.050311 37.262 19.5146 7.86147 -1 0 1
150 9 1 -0.091211 38.5996 20.1465 8.3752 -1 0 1
151 9 3 0.033922 32.2785 19.3943 6.8629 -1 0 1
152 9 3 0.033922 32.5958 17.6487 6.84519 -1 0 1
153 9 3 0.033922 33.353 18.6672 5.60149 -1 0 1
154 9 3 0.046089 33.8544 18.5887 8.53543 -1 0 1
155 9 3 0.046089 34.9278 18.052 7.15234 -1 0 1
156 9 4 0.121889 34.1344 20.9947 7.17367 -1 0 1
157 9 4 0.121889 36.6018 21.5454 7.3431 -1 0 1
158 9 3 0.046089 37.5274 19.0234 6.92077 -1 0 1
159 9 3 0.046089 36.9497 18.8616 8.68164 -1 0 1
160 9 3 0.033922 38.4108 20.823 9.21382 -1 0 1
161 9 3 0.033922 39.3119 19.3414 8.57767 -1 0 1
162 9 3 0.033922 38.9989 20.8491 7.63803 -1 0 1
163 10 1 -0.091211 8.37719 7.98062 9.10272 0 0 1
164 10 1 -0.050311 7.68322 7.80978 7.69472 0 0 1
165 10 2 -0.174311 8.25871 8.83347 6.71382 0 0 1
166 10 2 -0.174311 7.85453 10.1096 6.58095 0 0 1
167 10 1 -0.050311 6.96603 10.8981 7.53244 0 0 1
168 10 1 -0.091211 5.60451 11.2479 7.00754 0 0 1
169 10 3 0.033922 9.37902 7.56727 8.95411 0 0 1
170 10 3 0.033922 7.80834 7.38404 9.82183 0 0 1
171 10 3 0.033922 8.51333 9.00291 9.46737 0 0 1
172 10 3 0.046089 7.86656 6.77042 7.40717 0 0 1
173 10 3 0.046089 6.61263 8.00872 7.79905 0 0 1
174 10 4 0.121889 9.07091 8.49479 6.0785 0 0 1
175 10 4 0.121889 8.36484 10.7525 5.87086 0 0 1
176 10 3 0.046089 7.51432 11.8162 7.76278 0 0 1
177 10 3 0.046089 6.91816 10.463 8.53493 0 0 1
178 10 3 0.033922 5.55744 11.7803 6.05311 0 0 1
179 10 3 0.033922 5.03075 10.3287 6.85763 0 0 1
180 10 3 0.033922 5.11236 11.8645 7.7653 0 0 1
181 11 1 -0.091211 40.7454 16.4631 17.3301 -1 0 0
182 11 1 -0.050311 41.3741 16.0112 16.0243 -1 0 0
183 11 2 -0.174311 40.3805 15.0477 15.3035 -1 0 0
184 11 2 -0.174311 40.6423 14.2087 14.2796 -1 0 0
185 11 1 -0.050311 -2.22238 14.123 13.4975 0 0 0
186 11 1 -0.091211 -2.49406 14.4762 12.0381 0 0 0
187 11 3 0.033922 39.7652 16.9253 17.1809 -1 0 0
188 11 3 0.033922 41.3692 17.2363 17.7879 -1 0 0
189 11 3 0.033922 40.6526 15.5499 17.925 -1 0 0
190 11 3 0.046089 41.6036 16.9301 15.4771 -1 0 0
191 11 3 0.046089 -1.84061 15.5567 16.1972 0 0 0
192 11 4 0.121889 39.3732 15.1904 15.6817 -1 0 0
193 11 4 0.121889 39.7716 13.6294 13.9892 -1 0 0
194 11 3 0.046089 -1.80759 13.1117 13.5416 0 0 0
195 11 3 0.046089 -1.49674 14.8829 13.8017 0 0 0
196 11 3 0.033922 41.486 15.5376 11.8832 -1 0 0
197 11 3 0.033922 -1.72013 14.1761 11.3257 0 0 0
198 11 3 0.033922 40.7379 14.0567 11.7319 -1 0 0
199 12 1 -0.091211 2.62724 11.7132 4.43047 0 0 0
200 12 1 -0.050311 3.42737 10.4781 3.93765 0 0 0
201 12 2 -0.174311 2.52623 9.28055 3.57759 0 0 0
202 12 2 -0.174311 2.5198 8.12556 4.38027 0 0 0
203 12 1 -0.050311 3.31423 8.11761 5.65744 0 0 0
204 12 1 -0.091211 3.35494 6.76477 6.32964 0 0 0
205 12 3 0.033922 2.0962 11.4976 5.36221 0 0 0
206 12 3 0.033922 2.04078 12.2454 3.67581 0 0 0
207 12 3 0.033922 3.36007 12.5052 4.61038 0 0 0
208 12 3 0.046089 3.94931 10.7836 3.02612 0 0 0
209 12 3 0.046089 4.24968 10.2728 4.62924 0 0 0
210 12 4 0.121889 1.81927 9.31722 2.75486 0 0 0
211 12 4 0.121889 1.951 7.26172 4.05129 0 0 0
212 12 3 0.046089 2.89745 8.85174 6.35312 0 0 0
213 12 3 0.046089 4.34468 8.42249 5.45288 0 0 0
214 12 3 0.033922 2.37604 6.29311 6.20343 0 0 0
215 12 3 0.033922 4.14623 6.21903 5.80749 0 0 0
216 12 3 0.033922 3.64099 6.70132 7.38358 0 0 0
217 13 1 -0.091211 -2.63456 12.4888 18.9592 0 0 0
218 13 1 -0.050311 -1.11008 12.37 19.2348 0 0 0
219 13 2 -0.174311 -0.33499 13.2095 18.3146 0 0 0
220 13 2 -0.174311 1.02286 13.285 18.1985 0 0 0
221 13 1 -0.050311 1.89276 12.4414 19.0585 0 0 0
222 13 1 -0.091211 3.14521 13.2184 19.3247 0 0 0
223 13 3 0.033922 -2.77536 12.1606 17.9252 0 0 0
224 13 3 0.033922 41.1167 13.4473 19.2442 -1 0 0
225 13 3 0.033922 41.1458 11.6611 19.5422 -1 0 0
226 13 3 0.046089 -0.884276 12.6669 1.36172 0 0 1
227 13 3 0.046089 -0.892213 11.2981 19.2311 0 0 0
228 13 4 0.121889 -0.835255 13.814 17.5648 0 0 0
229 13 4 0.121889 1.35832 13.903 17.3718 0 0 0
230 13 3 0.046089 2.07673 11.4843 18.5619 0 0 0
231 13 3 0.046089 1.41767 12.1425 19.9975 0 0 0
232 13 3 0.033922 3.5832 13.742 18.4699 0 0 0
233 13 3 0.033922 2.99382 13.9701 1.20343 0 0 1
234 13 3 0.033922 3.95056 12.5075 19.531 0 0 0
235 14 1 -0.091211 12.293 7.0118 10.0737 0 0 0
236 14 1 -0.050311 11.865 8.48929 10.0503 0 0 0
237 14 2 -0.174311 10.9844 8.81969 11.2883 0 0 0
238 14 2 -0.174311 11.1514 9.8793 12.1826 0 0 0
239 14 1 -0.050311 12.3302 10.8549 12.1789 0 0 0
240 14 1 -0.091211 11.839 12.236 12.578 0 0 0
241 14 3 0.033922 11.4391 6.37519 9.8241 0 0 0
242 14 3 0.033922 12.6141 6.75247 11.0867 0 0 0
243 14 3 0.033922 13.1236 6.70297 9.43242 0 0 0
244 14 3 0.046089 12.6969 9.19885 10.0155 0 0 0
245 14 3 0.046089 11.3769 8.70766 9.09598 0 0 0
246 14 4 0.121889 10.1785 8.11225 11.4559 0 0 0
247 14 4 0.121889 10.2922 10.0749 12.8164 0 0 0
248 14 3 0.046089 12.9479 10.8365 11.2763 0 0 0
249 14 3 0.046089 12.9895 10.5418 12.9937 0 0 0
250 14 3 0.033922 12.5638 13.0439 12.7141 0 0 0
251 14 3 0.033922 11.1675 12.5559 11.7759 0 0 0
252 14 3 0.033922 11.2322 12.1369 13.4828 0 0 0
253 15 1 -0.091211 -0.402308 16.0695 1.93188 0 0 1
254 15 1 -0.050311 0.0286654 17.2342 19.9691 0 0 0
255 15 2 -0.174311 0.688581 16.6317 18.6794 0 0 0
256 15 2 -0.174311 2.03534 16.7187 18.3641 0 0 0
257 15 1 -0.050311 3.04412 17.3165 19.3198 0 0 0
258 15 1 -0.091211 4.53776 17.1103 18.9607 0 0 0
259 15 3 0.033922 -0.85158 15.3505 1.24065 0 0 1
260 15 3 0.033922 -1.17859 16.4388 2.60834 0 0 1
261 15 3 0.033922 0.486904 15.593 2.35485 0 0 1
262 15 3 0.046089 -0.847407 17.8517 19.7504 0 0 0
263 15 3 0.046089 0.701567 17.9518 1.54602 0 0 1
264 15 4 0.121889 0.0524404 16.1182 17.9655 0 0 0
265 15 4 0.121889 2.36685 16.3346 17.4046 0 0 0
266 15 3 0.046089 2.79519 16.8889 1.39398 0 0 1
267 15 3 0.046089 2.85486 18.392 19.3831 0 0 0
268 15 3 0.033922 4.92008 17.5295 18.0254 0 0 0
269 15 3 0.033922 5.17647 17.49 19.7634 0 0 0
270 15 3 0.033922 4.72079 16.0326 18.9186 0 0 0
271 16 1 -0.091211 5.26004 3.70177 8.67807 0 1 0
272 16 1 -0.050311 6.10599 4.56101 7.77456 0 1 0
273 16 2 -0.174311 7.46317 3.98288 7.61923 0 1 0
274 16 2 -0.174311 7.71648 2.95232 6.77248 0 1 0
275 16 1 -0.050311 6.80003 2.20217 5.738 0 1 0
276 16 1 -0.091211 7.20358 0.746165 5.47013 0 1 0
277 16 3 0.033922 5.10035 2.69014 8.29377 0 1 0
278 16 3 0.033922 4.27358 4.13457 8.86834 0 1 0
279 16 3 0.033922 5.72591 3.54529 9.65537 0 1 0
280 16 3 0.046089 5.59847 4.59052 6.80596 0 1 0
281 16 3 0.046089 6.14262 5.59778 8.12146 0 1 0
282 16 4 0.121889 8.23003 4.32556 8.30663 0 1 0
283 16 4 0.121889 8.74412 2.63068 6.90859 0 1 0
284 16 3 0.046089 6.80173 2.77026 4.80318 0 1 0
285 16 3 0.046089 5.76653 2.21575 6.09621 0 1 0
286 16 3 0.033922 7.16676 0.212343 6.42423 0 1 0
287 16 3 0.033922 6.46878 0.268278 4.81567 0 1 0
288 16 3 0.033922 8.16928 0.753431 4.95632 0 1 0
289 17 1 -0.091211 6.18204 13.834 16.8342 0 0 0
290 17 1 -0.050311 6.94854 13.1157 15.6706 0 0 0
291 17 2 -0.174311 6.18778 12.0124 15.0447 0 0 0
292 17 2 -0.174311 6.33209 11.6321 13.7097 0 0 0
293 17 1 -0.050311 7.18262 12.2801 12.6357 0 0 0
294 17 1 -0.091211 6.9397 11.6308 11.228 0 0 0
295 17 3 0.033922 6.75274 14.666 17.2569 0 0 0
296 17 3 0.033922 5.9069 13.1035 17.6005 0 0 0
297 17 3 0.033922 5.275 14.3065 16.446 0 0 0
298 17 3 0.046089 7.18911 13.7916 14.8449 0 0 0
299 17 3 0.046089 7.90036 12.7281 16.0454 0 0 0
300 17 4 0.121889 5.53828 11.4134 15.675 0 0 0
301 17 4 0.121889 5.62425 10.8641 13.4145 0 0 0
302 17 3 0.046089 8.21667 12.1287 12.9589 0 0 0
303 17 3 0.046089 6.93483 13.345 12.6698 0 0 0
304 17 3 0.033922 6.75974 10.5652 11.3974 0 0 0
305 17 3 0.033922 6.04108 12.0726 10.7877 0 0 0
306 17 3 0.033922 7.87563 11.7181 10.6685 0 0 0
307 18 1 -0.091211 38.7837 11.3066 11.5474 -1 0 1
308 18 1 -0.050311 38.0568 11.6406 10.2485 -1 0 1
309 18 2 -0.174311 38.9513 12.3301 9.19794 -1 0 1
310 18 2 -0.174311 39.1218 12.0213 7.8532 -1 0 1
311 18 1 -0.050311 38.6752 10.6991 7.18084 -1 0 1
312 18 1 -0.091211 39.7931 9.78354 6.65188 -1 0 1
313 18 3 0.033922 38.0605 11.1815 12.3585 -1 0 1
314 18 3 0.033922 39.444 12.0701 11.9689 -1 0 1
315 18 3 0.033922 39.3238 10.3593 11.4614 -1 0 1
316 18 3 0.046089 37.6083 10.722 9.85926 -1 0 1
317 18 3 0.046089 37.2048 12.2617 10.5398 -1 0 1
318 18 4 0.121889 39.4276 13.2558 9.50496 -1 0 1
319 18 4 0.121889 39.5875 12.802 7.26026 -1 0 1
320 18 3 0.046089 38.0247 10.9366 6.33404 -1 0 1
321 18 3 0.046089 38.1226 10.1107 7.91914 -1 0 1
322 18 3 0.033922 40.2511 10.24 5.76959 -1 0 1
323 18 3 0.033922 40.5774 9.62216 7.39722 -1 0 1
324 18 3 0.033922 39.33 8.86063 6.2909 -1 0 1
325 19 1 -0.091211 12.3462 8.50067 6.5323 0 0 0
326 19 1 -0.050311 13.1148 8.67402 5.25239 0 0 0
327 19 2 -0.174311 12.2142 9.33551 4.20721 0 0 0
328 19 2 -0.174311 12.6381 9.63423 2.93117 0 0 0
329 19 1 -0.050311 14.05 9.65185 2.48851 0 0 0
330 19 1 -0.091211 14.2067 9.15594 19.959 0 0 -1
331 19 3 0.033922 13.0348 7.92174 7.15466 0 0 0
332 19 3 0.033922 11.4341 7.91599 6.38175 0 0 0
333 19 3 0.033922 12.1063 9.44059 7.03783 0 0 0
334 19 3 0.046089 13.9288 9.31818 5.59746 0 0 0
335 19 3 0.046089 13.4305 7.69027 4.893 0 0 0
336 19 4 0.121889 11.1404 9.47124 4.28875 0 0 0
337 19 4 0.121889 11.9335 10.0592 2.22337 0 0 0
338 19 3 0.046089 14.7128 9.07308 3.13842 0 0 0
339 19 3 0.046089 14.3434 10.7039 2.54998 0 0 0
340 19 3 0.033922 13.5509 9.655 19.2397 0 0 -1
341 19 3 0.033922 15.2265 9.30588 19.5928 0 0 -1
342 19 3 0.033922 13.9809 8.08861 19.8791 0 0 -1
343 20 1 -0.091211 11.0299 21.8556 13.5311 0 -1 0
344 20 1 -0.050311 10.9653 21.1239 12.1134 0 -1 0
345 20 2 -0.174311 11.1203 22.0992 10.9623 0 -1 0
346 20 2 -0.174311 11.0723 21.8097 9.639 0 -1 0
347 20 1 -0.050311 10.9521 20.3961 9.13846 0 -1 0
348 20 1 -0.091211 9.87077 20.2275 8.03036 0 -1 0
349 20 3 0.033922 10.4027 22.7364 13.6967 0 -1 0
350 20 3 0.033922 12.0664 22.0946 13.7862 0 -1 0
351 20 3 0.033922 10.8868 21.2311 14.4177 0 -1 0
352 20 3 0.046089 11.7991 20.4206 12.031 0 -1 0
353 20 3 0.046089 10.0361 20.5468 12.1287 0 -1 0
354 20 4 0.121889 11.2508 -1.41037 11.3447 0 0 0
355 20 4 0.121889 11.2735 22.5468 8.86822 0 -1 0
356 20 3 0.046089 10.658 19.6702 9.90217 0 -1 0
357 20 3 0.046089 11.9334 20.0603 8.79075 0 -1 0
358 20 3 0.033922 9.26186 21.1361 8.04617 0 -1 0
359 20 3 0.033922 10.199 20.2743 6.98791 0 -1 0
360 20 3 0.033922 9.26552 19.3253 8.15759 0 -1 0
361 21 1 -0.091211 4.41429 20.237 17.0062 0 -1 0
362 21 1 -0.050311 3.37567 20.7074 16.0781 0 -1 0
363 21 2 -0.174311 2.63104 21.942 16.6428 0 -1 0
364 21 2 -0.174311 1.60144 21.9519 17.544 0 -1 0
365 21 1 -0.050311 0.90809 20.7337 18.158 0 -1 0
366 21 1 -0.091211 -0.336125 21.2483 18.8671 0 -1 0
367 21 3 0.033922 5.30345 20.8535 17.1671 0 -1 0
368 21 3 0.033922 4.89602 19.3866 16.515 0 -1 0
369 21 3 0.033922 4.09638 19.8733 17.9877 0 -1 0
370 21 3 0.046089 3.79898 20.9921 15.1105 0 -1 0
371 21 3 0.046089 2.63014 19.9173 15.9493 0 -1 0
372 21 4 0.121889 2.78782 22.9363 16.2369 0 -1 0
373 21 4 0.121889 1.08015 22.8922 17.6927 0 -1 0
374 21 3 0.046089 1.58167 20.3409 18.9252 0 -1 0
375 21 3 0.046089 0.734994 19.999 17.3662 0 -1 0
376 21 3 0.033922 -0.929247 21.8686 18.1888 0 -1 0
377 21 3 0.033922 -1.01875 20.5148 19.306 0 -1 0
378 21 3 0.033922 0.034875 21.8402 19.7088 0 -1 0
379 22 1 -0.091211 6.78877 20.2805 10.8157 0 -1 0
380 22 1 -0.050311 6.86956 21.4802 11.664 0 -1 0
381 22 2 -0.174311 7.17051 21.1066 13.0424 0 -1 0
382 22 2 -0.174311 7.05152 21.8719 14.2483 0 -1 0
383 22 1 -0.050311 6.78375 -1.18509 14.4281 0 0 0
384 22 1 -0.091211 7.03193 -0.736364 15.9098 0 0 0
385 22 3 0.033922 6.51531 20.5537 9.79238 0 -1 0
386 22 3 0.033922 6.00932 19.6116 11.1921 0 -1 0
387 22 3 0.033922 7.73574 19.7351 10.7677 0 -1 0
388 22 3 0.046089 7.64616 22.1241 11.241 0 -1 0
389 22 3 0.046089 5.8883 21.9593 11.7289 0 -1 0
390 22 4 0.121889 7.4161 20.061 13.1988 0 -1 0
391 22 4 0.121889 7.27014 21.2061 15.0771 0 -1 0
392 22 3 0.046089 5.77489 -0.818691 14.217 0 0 0
393 22 3 0.046089 7.35878 -0.578824 13.7221 0 0 0
394 22 3 0.033922 6.14698 -1.03926 16.477 0 0 0
395 22 3 0.033922 7.93139 -1.02714 16.4603 0 0 0
396 22 3 0.033922 7.03089 0.357473 15.9004 0 0 0
397 23 1 -0.091211 0.356521 4.24992 17.734 0 0 -1
398 23 1 -0.050311 1.18065 4.46534 18.9888 0 0 -1
399 23 2 -0.174311 1.07781 5.91833 19.4514 0 0 -1
400 23 2 -0.174311 1.95364 6.90117 19.2983 0 0 -1
401 23 1 -0.050311 3.19399 6.73601 18.404 0 0 -1
402 23 1 -0.091211 4.0308 7.9833 18.4198 0 0 -1
403 23 3 0.033922 0.664452 3.33696 17.216 0 0 -1
404 23 3 0.033922 0.525031 5.0486 17.0057 0 0 -1
405 23 3 0.033922 -0.713694 4.12744 17.9244 0 0 -1
406 23 3 0.046089 0.903628 3.86246 19.8585 0 0 -1
407 23 3 0.046089 2.22483 4.23446 18.7586 0 0 -1
408 23 4 0.121889 0.13865 6.05665 19.9775 0 0 -1
409 23 4 0.121889 1.82306 7.89878 19.7054 0 0 -1
410 23 3 0.046089 2.8144 6.50163 17.4052 0 0 -1
411 23 3 0.046089 3.82887 5.90704 18.7301 0 0 -1
412 23 3 0.033922 4.33759 8.18936 19.4494 0 0 -1
413 23 3 0.033922 4.88929 7.88309 17.7493 0 0 -1
414 23 3 0.033922 3.46921 8.85208 18.0642 0 0 -1
415 24 1 -0.091211 6.74262 9.15063 19.8795 0 0 -1
416 24 1 -0.050311 6.24206 10.5424 1.16312 0 0 0
417 24 2 -0.174311 6.62483 10.9369 2.61206 0 0 0
418 24 2 -0.174311 6.93713 12.233 3.02402 0 0 0
419 24 1 -0.050311 6.88596 13.5029 2.16405 0 0 0
420 24 1 -0.091211 5.91982 14.4894 2.80549 0 0 0
421 24 3 0.033922 6.64157 8.77726 18.8562 0 0 -1
422 24 3 0.033922 6.10402 8.47973 1.55999 0 0 0
423 24 3 0.033922 7.73988 9.16409 1.42739 0 0 0
424 24 3 0.046089 6.65962 11.2683 19.3608 0 0 -1
425 24 3 0.046089 5.14986 10.5064 20.0153 0 0 -1
426 24 4 0.121889 6.70398 10.1348 3.33902 0 0 0
427 24 4 0.121889 7.30631 12.3385 4.0392 0 0 0
428 24 3 0.046089 6.54782 13.306 1.14251 0 0 0
429 24 3 0.046089 7.88613 13.94 2.23631 0 0 0
430 24 3 0.033922 4.8822 14.1864 2.63762 0 0 0
431 24 3 0.033922 6.22714 14.558 3.8531 0 0 0
432 24 3 0.033922 6.02426 15.4855 2.36568 0 0 0
433 25 1 -0.091211 5.46847 3.94023 16.5443 0 0 0
434 25 1 -0.050311 6.50354 5.02619 16.7049 0 0 0
435 25 2 -0.174311 7.35572 5.1979 15.4791 0 0 0
436 25 2 -0.174311 8.19845 6.29744 15.1784 0 0 0
437 25 1 -0.050311 8.28021 7.54403 16.1266 0 0 0
438 25 1 -0.091211 8.42818 8.92362 15.3775 0 0 0
439 25 3 0.033922 4.8198 4.15816 15.6909 0 0 0
440 25 3 0.033922 4.85963 3.82487 17.4458 0 0 0
441 25 3 0.033922 5.97903 2.97549 16.4722 0 0 0
442 25 3 0.046089 5.89666 5.92343 16.8574 0 0 0
443 25 3 0.046089 7.0796 4.65124 17.5559 0 0 0
444 25 4 0.121889 7.43327 4.41626 14.7301 0 0 0
445 25 4 0.121889 8.68715 6.25196 14.2103 0 0 0
446 25 3 0.046089 9.0017 7.37375 16.9311 0 0 0
447 25 3 0.046089 7.29273 7.70495 16.5689 0 0 0
448 25 3 0.033922 7.74505 8.88771 14.5239 0 0 0
449 25 3 0.033922 8.06958 9.69675 16.0633 0 0 0
450 25 3 0.033922 9.46941 9.14699 15.1274 0 0 0
451 26 1 -0.091211 3.39772 14.5302 12.3338 0 -1 0
452 26 1 -0.050311 1.88221 14.3937 12.4934 0 -1 0
453 26 2 -0.174311 1.40681 15.3035 13.6099 0 -1 0
454 26 2 -0.174311 0.863564 16.581 13.6256 0 -1 0
455 26 1 -0.050311 0.416006 17.332 12.3544 0 -1 0
456 26 1 -0.091211 0.541712 18.921 12.6413 0 -1 0
457 26 3 0.033922 3.92895 14.0591 13.1659 0 -1 0
458 26 3 0.033922 3.6629 15.5902 12.3861 0 -1 0
459 26 3 0.033922 3.90136 14.0566 11.4861 0 -1 0
460 26 3 0.046089 1.2766 14.6229 11.6117 0 -1 0
461 26 3 0.046089 1.57795 13.3707 12.733 0 -1 0
462 26 4 0.121889 1.69116 14.9791 14.6059 0 -1 0
463 26 4 0.121889 0.692574 17.1267 14.548 0 -1 0
464 26 3 0.046089 -0.587075 16.9724 12.1071 0 -1 0
465 26 3 0.046089 1.15666 17.1045 11.5822 0 -1 0
466 26 3 0.033922 0.248325 19.4653 11.7389 0 -1 0
467 26 3 0.033922 -0.130261 19.2191 13.4514 0 -1 0
468 26 3 0.033922 1.61356 19.1212 12.7289 0 -1 0
469 27 1 -0.091211 13.7904 15.7683 18.78 0 0 -1
470 27 1 -0.050311 14.4234 14.6764 19.6998 0 0 -1
471 27 2 -0.174311 15.8817 14.4612 19.5308 0 0 -1
472 27 2 -0.174311 16.8494 15.066 1.36827 0 0 0
473 27 1 -0.050311 16.7311 16.162 2.36541 0 0 0
474 27 1 -0.091211 17.8705 17.2341 2.05224 0 0 0
475 27 3 0.033922 12.8267 16.1981 19.0687 0 0 -1
476 27 3 0.033922 13.5601 15.3469 17.7971 0 0 -1
477 27 3 0.033922 14.584 16.5209 18.7982 0 0 -1
478 27 3 0.046089 14.1998 15.0009 1.81878 0 0 0
479 27 3 0.046089 13.8748 13.7639 19.4489 0 0 -1
480 27 4 0.121889 16.142 13.6879 18.8152 0 0 -1
481 27 4 0.121889 17.8633 14.8026 19.9855 0 0 -1
482 27 3 0.046089 16.9572 15.7688 3.36087 0 0 0
483 27 3 0.046089 15.7174 16.5601 2.26245 0 0 0
484 27 3 0.033922 18.8314 16.7188 1.96405 0 0 0
485 27 3 0.033922 17.6477 17.7704 20.0267 0 0 -1
486 27 3 0.033922 17.9934 18.0193 2.8039 0 0 0
487 28 1 -0.091211 7.53067 19.3695 1.57008 0 -1 0
488 28 1 -0.050311 7.01697 20.8375 1.24865 0 -1 0
489 28 2 -0.174311 6.97954 21.616 2.50262 0 -1 0
490 28 2 -0.174311 8.01625 22.1738 3.24645 0 -1 0
491 28 1 -0.050311 9.48897 21.9321 3.0531 0 -1 0
492 28 1 -0.091211 10.2521 23.0438 3.71433 0 -1 0
493 28 3 0.033922 7.36169 18.7005 19.6227 0 -1 -1
494 28 3 0.033922 6.83466 18.8908 2.26507 0 -1 0
495 28 3 0.033922 8.54204 19.4187 1.98401 0 -1 0
496 28 3 0.046089 7.69465 21.3172 19.4378 0 -1 -1
497 28 3 0.046089 6.06188 20.8124 19.6174 0 -1 -1
498 28 4 0.121889 5.9967 21.868 2.88808 0 -1 0
499 28 4 0.121889 7.69514 22.7646 4.09844 0 -1 0
500 28 3 0.046089 9.71417 21.969 1.98325 0 -1 0
501 28 3 0.046089 9.77066 20.9448 3.43064 0 -1 0
502 28 3 0.033922 11.3333 23.0155 3.55062 0 -1 0
503 28 3 0.033922 9.96878 -0.534919 3.2284 0 0 0
504 28 3 0.033922 10.0279 -1.48865 4.78491 0 0 0
505 29 1 -0.091211 7.22209 6.78205 4.41492 0 0 0
506 29 1 -0.050311 6.51276 5.53042 3.92118 0 0 0
507 29 2 -0.174311 5.35364 5.81501 2.95208 0 0 0
508 29 2 -0.174311 4.1982 5.11955 2.93359 0 0 0
509 29 1 -0.050311 3.87249 3.89426 3.79152 0 0 0
510 29 1 -0.091211 2.35263 3.50828 3.66762 0 0 0
511 29 3 0.033922 6.64258 7.24249 5.22038 0 0 0
512 29 3 0.033922 7.42989 7.43193 3.55988 0 0 0
513 29 3 0.033922 8.17187 6.39892 4.7993 0 0 0
514 29 3 0.046089 7.19077 4.84881 3.39936 0 0 0
515 29 3 0.046089 6.1 5.00385 4.78662 0 0 0
516 29 4 0.121889 5.27063 6.69438 2.32136 0 0 0
517 29 4 0.121889 3.41436 5.43815 2.25379 0 0 0
518 29 3 0.046089 4.10943 4.18031 4.82043 0 0 0
519 29 3 0.046089 4.47252 2.99905 3.60402 0 0 0
520 29 3 0.033922 1.8021 4.45042 3.74424 0 0 0
521 29 3 0.033922 2.24151 2.89398 2.76934 0 0 0
522 29 3 0.033922 2.0315 2.88304 4.50582 0 0 0
523 30 1 -0.091211 0.547028 -0.478626 5.27763 0 1 1
524 30 1 -0.050311 1.57883 0.106954 6.28946 0 1 1
525 30 2 -0.174311 2.99133 -0.1793 5.83163 0 1 1
526 30 2 -0.174311 4.04352 -0.638984 6.68104 0 1 1
527 30 1 -0.050311 3.88412 -0.657955 8.20055 0 1 1
528 30 1 -0.091211 5.16924 -0.999101 8.97232 0 1 1
529 30 3 0.033922 0.520784 22.9468 5.34387 0 0 1
530 30 3 0.033922 0.805164 -0.127543 4.27426 0 1 1
531 30 3 0.033922 -0.424113 -0.0226167 5.49107 0 1 1
532 30 3 0.046089 1.35436 1.16998 6.41663 0 1 1
533 30 3 0.046089 1.41178 -0.404623 7.24183 0 1 1
534 30 4 0.121889 3.26236 -0.217377 4.78133 0 1 1
535 30 4 0.121889 5.01909 -0.945997 6.31769 0 1 1
536 30 3 0.046089 3.25108 -1.48506 8.53484 0 1 1
537 30 3 0.046089 3.40103 0.269869 8.52048 0 1 1
538 30 3 0.033922 5.03032 -1.18154 10.0419 0 1 1
539 30 3 0.033922 5.58377 22.6069 8.53085 0 0 1
540 30 3 0.033922 5.89645 -0.186237 8.88858 0 1 1
541 31 1 -0.091211 20.51 0.483123 13.2443 0 1 0
542 31 1 -0.050311 20.887 1.7816 13.9719 0 1 0
543 31 2 -0.174311 21.9458 2.462 13.1047 0 1 0
544 31 2 -0.174311 22.255 3.78385 13.1916 0 1 0
545 31 1 -0.050311 21.9572 4.80403 14.3388 0 1 0
546 31 1 -0.091211 23.283 5.52137 14.7053 0 1 0
547 31 3 0.033922 20.226 0.656874 12.2022 0 1 0
548 31 3 0.033922 19.6904 -0.0440853 13.7412 0 1 0
549 31 3 0.033922 21.3099 -0.262386 13.2767 0 1 0
550 31 3 0.046089 19.9655 2.36984 14.0088 0 1 0
551 31 3 0.046089 21.198 1.56866 14.9988 0 1 0
552 31 4 0.121889 22.5407 2.01419 12.315 0 1 0
553 31 4 0.121889 22.9898 4.1626 12.4883 0 1 0
554 31 3 0.046089 21.5069 4.2592 15.1737 0 1 0
555 31 3 0.046089 21.1811 5.51106 14.0315 0 1 0
556 31 3 0.033922 24.1479 4.8635 14.58 0 1 0
557 31 3 0.033922 23.4826 6.38928 14.0701 0 1 0
558 31 3 0.033922 23.3185 5.88874 15.735 0 1 0
559 32 1 -0.091211 17.3729 22.2188 8.32822 0 0 0
560 32 1 -0.050311 15.8521 22.4548 8.23451 0 0 0
561 32 2 -0.174311 15.2593 22.3301 6.87947 0 0 0
562 32 2 -0.174311 14.2071 -1.4224 6.46647 0 1 0
563 32 1 -0.050311 13.2888 -0.504584 7.31842 0 1 0
564 32 1 -0.091211 11.9603 -0.45562 6.69267 0 1 0
565 32 3 0.033922 17.7652 22.3915 9.33465 0 0 0
566 32 3 0.033922 17.8324 22.8825 7.59003 0 0 0
567 32 3 0.033922 17.5906 21.1715 8.09925 0 0 0
568 32 3 0.046089 15.3801 21.7573 8.93257 0 0 0
569 32 3 0.046089 15.5956 -1.09304 8.67223 0 1 0
570 32 4 0.121889 15.7638 21.6841 6.16793 0 0 0
571 32 4 0.121889 13.9394 22.9423 5.4257 0 0 0
572 32 3 0.046089 13.7673 0.467329 7.47011 0 1 0
573 32 3 0.046089 13.2127 -1.05928 8.25818 0 1 0
574 32 3 0.033922 11.2512 0.107141 7.30682 0 1 0
575 32 3 0.033922 12.0213 0.015491 5.7073 0 1 0
576 32 3 0.033922 11.605 -1.48878 6.63868 0 1 0
577 33 1 -0.091211 16.2035 7.964 12.2497 0 0 0
578 33 1 -0.050311 15.8985 8.73128 10.9424 0 0 0
579 33 2 -0.174311 16.2489 10.2234 11.1299 0 0 0
580 33 2 -0.174311 15.7609 11.1913 10.2936 0 0 0
581 33 1 -0.050311 14.9754 10.9425 9.03147 0 0 0
582 33 1 -0.091211 15.5084 12.028 8.05921 0 0 0
583 33 3 0.033922 15.6188 8.35707 13.0865 0 0 0
584 33 3 0.033922 17.2414 7.77595 12.5395 0 0 0
585 33 3 0.033922 15.8045 6.95351 12.1221 0 0 0
586 33 3 0.046089 16.5165 8.28542 10.1576 0 0 0
587 33 3 0.046089 14.8396 8.57876 10.7144 0 0 0
588 33 4 0.121889 16.8267 10.5487 11.9892 0 0 0
589 33 4 0.121889 15.9975 12.2108 10.5809 0 0 0
590 33 3 0.046089 13.8954 11.0249 9.18487 0 0 0
591 33 3 0.046089 15.255 10.0288 8.499 0 0 0
592 33 3 0.033922 15.058 12.9682 8.39055 0 0 0
593 33 3 0.033922 16.6014 11.99 8.03859 0 0 0
594 33 3 0.033922 15.1857 11.8367 7.03161 0 0 0
595 34 1 -0.091211 15.0034 16.258 6.08327 0 0 0
596 34 1 -0.050311 15.3409 17.3905 7.09924 0 0 0
597 34 2 -0.174311 15.5538 16.7843 8.44772 0 0 0
598 34 2 -0.174311 15.6201 17.4956 9.62725 0 0 0
599 34 1 -0.050311 15.2468 18.9881 9.7209 0 0 0
600 34 1 -0.091211 15.1742 19.4866 11.2123 0 0 0
601 34 3 0.033922 15.9607 15.7752 5.86626 0 0 0
602 34 3 0.033922 14.7538 16.7173 5.12236 0 0 0
603 34 3 0.033922 14.1837 15.5799 6.33764 0 0 0
604 34 3 0.046089 16.2724 17.8813 6.80241 0 0 0
605 34 3 0.046089 14.5232 18.117 7.08139 0 0 0
606 34 4 0.121889 15.9956 15.798 8.54831 0 0 0
607 34 4 0.121889 15.9463 17.0932 10.581 0 0 0
608 34 3 0.046089 14.3027 19.1823 9.20356 0 0 0
609 34 3 0.046089 16.0346 19.4853 9.14753 0 0 0
610 34 3 0.033922 14.2786 19.0776 11.6889 0 0 0
611 34 3 0.033922 16.0029 19.1222 11.8264 0 0 0
612 34 3 0.033922 15.1588 20.5802 11.1896 0 0 0
613 35 1 -0.091211 37.3817 11.7975 18.9944 -1 0 0
614 35 1 -0.050311 38.2132 11.7156 17.6933 -1 0 0
615 35 2 -0.174311 38.7406 10.3534 17.5745 -1 0 0
616 35 2 -0.174311 38.4251 9.46113 16.6284 -1 0 0