ITEM: TIMESTEP
70200
ITEM: NUMBER OF ATOMS
1800
ITEM: BOX BOUNDS pp pp pp
-3.9157889933138357e+00 4.2723804493313104e+01
3.0876205414466895e-02 2.1577779294585905e+01
3.3707703107744535e-01 2.0916656468922053e+01
ITEM: ATOMS id mol type q x y z ix iy iz
1 1 1 -0.091211 0.395031 11.1941 15.9793 0 -1 0
2 1 1 -0.050311 0.00885968 11.4399 14.4854 0 -1 0
3 1 2 -0.174311 0.964725 12.4236 13.8813 0 -1 0
4 1 2 -0.174311 1.82721 12.2858 12.7624 0 -1 0
5 1 1 -0.050311 1.82195 10.9697 11.9261 0 -1 0
6 1 1 -0.091211 2.92042 10.831 10.8874 0 -1 0
7 1 3 0.033922 1.45251 10.957 16.1281 0 -1 0
8 1 3 0.033922 -0.191396 10.3797 16.4145 0 -1 0
9 1 3 0.033922 0.202505 12.1391 16.4957 0 -1 0
10 1 3 0.046089 0.0809886 10.484 13.9584 0 -1 0
11 1 3 0.046089 -1.02818 11.788 14.4791 0 -1 0
12 1 4 0.121889 1.04279 13.3706 14.4057 0 -1 0
13 1 4 0.121889 2.51233 13.0885 12.5089 0 -1 0
14 1 3 0.046089 0.856206 10.9838 11.4125 0 -1 0
15 1 3 0.046089 1.91997 10.0948 12.5754 0 -1 0
16 1 3 0.033922 2.75059 9.86242 10.4082 0 -1 0
17 1 3 0.033922 2.98815 11.6223 10.1352 0 -1 0
18 1 3 0.033922 3.8874 10.7312 11.389 0 -1 0
19 2 1 -0.091211 8.88814 6.17127 12.6675 0 0 0
20 2 1 -0.050311 10.3011 6.25212 12.0724 0 0 0
21 2 2 -0.174311 10.9329 4.85929 12.0656 0 0 0
22 2 2 -0.174311 11.8816 4.33492 11.1804 0 0 0
23 2 1 -0.050311 12.5013 5.13118 10.0992 0 0 0
24 2 1 -0.091211 12.9605 4.35461 8.81064 0 0 0
25 2 3 0.033922 8.88728 5.54975 13.5677 0 0 0
26 2 3 0.033922 8.21146 5.73225 11.9286 0 0 0
27 2 3 0.033922 8.55972 7.19164 12.8857 0 0 0
28 2 3 0.046089 10.2214 6.58843 11.0345 0 0 0
29 2 3 0.046089 10.9926 6.91996 12.5943 0 0 0
30 2 4 0.121889 10.6691 4.14966 12.8433 0 0 0
31 2 4 0.121889 12.1418 3.2951 11.3508 0 0 0
32 2 3 0.046089 13.3167 5.70561 10.5485 0 0 0
33 2 3 0.046089 11.6699 5.79249 9.83824 0 0 0
34 2 3 0.033922 13.3829 5.04404 8.07379 0 0 0
35 2 3 0.033922 13.7893 3.67219 9.02042 0 0 0
36 2 3 0.033922 12.1001 3.92263 8.29139 0 0 0
37 3 1 -0.091211 -1.72942 0.746934 12.1911 0 0 0
38 3 1 -0.050311 -0.49266 1.17652 11.4181 0 0 0
39 3 2 -0.174311 0.707975 0.430691 11.879 0 0 0
40 3 2 -0.174311 1.94289 0.994599 12.0549 0 0 0
41 3 1 -0.050311 2.35041 2.48372 11.8542 0 0 0
42 3 1 -0.091211 2.74715 3.04688 13.1994 0 0 0
43 3 3 0.033922 -1.79681 21.2058 12.2824 0 -1 0
44 3 3 0.033922 -2.63484 0.927684 11.6044 0 0 0
45 3 3 0.033922 -1.82534 1.22233 13.1716 0 0 0
46 3 3 0.046089 -0.654002 0.889051 10.375 0 0 0
47 3 3 0.046089 -0.443325 2.26711 11.4873 0 0 0
48 3 4 0.121889 0.70925 20.9302 12.1635 0 -1 0
49 3 4 0.121889 2.73936 0.318874 12.3499 0 0 0
50 3 3 0.046089 1.57451 3.1156 11.4122 0 0 0
51 3 3 0.046089 3.19064 2.55633 11.1575 0 0 0
52 3 3 0.033922 2.9116 4.12788 13.1679 0 0 0
53 3 3 0.033922 1.94052 2.99756 13.9367 0 0 0
54 3 3 0.033922 3.61409 2.61704 13.7096 0 0 0
55 4 1 -0.091211 3.94522 15.7147 13.3464 0 -1 0
56 4 1 -0.050311 4.57975 17.0631 13.4366 0 -1 0
57 4 2 -0.174311 4.89405 17.3492 14.8634 0 -1 0
58 4 2 -0.174311 4.90059 18.562 15.5189 0 -1 0
59 4 1 -0.050311 4.7488 19.8304 14.6954 0 -1 0
60 4 1 -0.091211 3.41054 20.4435 14.9457 0 -1 0
61 4 3 0.033922 4.69052 15.0432 13.7826 0 -1 0
62 4 3 0.033922 3.72838 15.3904 12.3244 0 -1 0
63 4 3 0.033922 3.05837 15.5938 13.9753 0 -1 0
64 4 3 0.046089 5.44421 17.0212 12.7676 0 -1 0
65 4 3 0.046089 3.92881 17.8288 13.0046 0 -1 0
66 4 4 0.121889 5.31078 16.5896 15.5171 0 -1 0
67 4 4 0.121889 5.21854 18.6408 16.5537 0 -1 0
68 4 3 0.046089 4.95728 19.5886 13.6491 0 -1 0
69 4 3 0.046089 5.52212 20.5605 14.9514 0 -1 0
70 4 3 0.033922 3.45829 20.7054 16.0067 0 -1 0
71 4 3 0.033922 3.2775 21.3564 14.3578 0 -1 0
72 4 3 0.033922 2.648 19.6994 14.6978 0 -1 0
73 5 1 -0.091211 -1.95517 7.61406 12.5609 0 0 0
74 5 1 -0.050311 -3.42179 7.82985 12.1144 0 0 0
75 5 2 -0.174311 42.2873 7.19704 13.128 -1 0 0
76 5 2 -0.174311 40.9909 6.76217 12.868 -1 0 0
77 5 1 -0.050311 40.2643 6.76043 11.4949 -1 0 0
78 5 1 -0.091211 38.9082 6.03661 11.582 -1 0 0
79 5 3 0.033922 -1.30025 8.13758 11.8583 0 0 0
80 5 3 0.033922 -1.78994 6.53456 12.4978 0 0 0
81 5 3 0.033922 -1.72711 7.97073 13.5696 0 0 0
82 5 3 0.046089 -3.54672 8.91043 11.9989 0 0 0
83 5 3 0.046089 -3.58386 7.4187 11.1137 0 0 0
84 5 4 0.121889 42.6912 7.12182 14.1327 -1 0 0
85 5 4 0.121889 40.3638 6.43928 13.693 -1 0 0
86 5 3 0.046089 40.8687 6.22881 10.7541 -1 0 0
87 5 3 0.046089 40.1124 7.79365 11.1693 -1 0 0
88 5 3 0.033922 38.245 6.55893 12.2776 -1 0 0
89 5 3 0.033922 38.3924 6.03011 10.6173 -1 0 0
90 5 3 0.033922 39.0936 4.98087 11.8003 -1 0 0
91 6 1 -0.091211 9.05978 6.2964 1.96529 0 0 1
92 6 1 -0.050311 8.05158 5.40737 1.3962 0 0 1
93 6 2 -0.174311 8.74051 4.37495 0.569759 0 0 1
94 6 2 -0.174311 8.1836 3.22676 20.6479 0 0 0
95 6 1 -0.050311 6.72667 2.8712 20.8556 0 0 0
96 6 1 -0.091211 6.06386 2.17595 19.6706 0 0 0
97 6 3 0.033922 9.68418 6.72025 1.17338 0 0 1
98 6 3 0.033922 9.63935 5.69109 2.66837 0 0 1
99 6 3 0.033922 8.508 7.08179 2.49 0 0 1
100 6 3 0.046089 7.44552 4.95856 2.1886 0 0 1
101 6 3 0.046089 7.34326 5.96223 0.77407 0 0 1
102 6 4 0.121889 9.80541 4.34333 0.36235 0 0 1
103 6 4 0.121889 8.75807 2.58846 19.9841 0 0 0
104 6 3 0.046089 6.18764 3.80697 21.03 0 0 0
105 6 3 0.046089 6.58133 2.20715 1.13311 0 0 1
106 6 3 0.033922 4.97327 2.13589 19.7457 0 0 0
107 6 3 0.033922 6.31457 2.73578 18.7648 0 0 0
108 6 3 0.033922 6.49204 1.1833 19.5035 0 0 0
109 7 1 -0.091211 35.2412 0.451115 1.95697 -1 1 0
110 7 1 -0.050311 34.3735 1.60889 1.56444 -1 1 0
111 7 2 -0.174311 34.3948 1.86372 20.6367 -1 1 -1
112 7 2 -0.174311 33.3576 2.25373 19.8836 -1 1 -1
113 7 1 -0.050311 31.9437 2.09904 20.3811 -1 1 -1
114 7 1 -0.091211 30.9553 2.45171 19.2171 -1 1 -1
115 7 3 0.033922 36.2988 0.632366 1.74417 -1 1 0
116 7 3 0.033922 34.8877 21.122 1.40544 -1 0 0
117 7 3 0.033922 35.1401 0.185842 3.0134 -1 1 0
118 7 3 0.046089 33.348 1.40333 1.88498 -1 1 0
119 7 3 0.046089 34.7062 2.54783 2.01646 -1 1 0
120 7 4 0.121889 35.3761 1.99568 20.1921 -1 1 -1
121 7 4 0.121889 33.4624 2.54361 18.8429 -1 1 -1
122 7 3 0.046089 31.6746 2.72438 0.657769 -1 1 0
123 7 3 0.046089 31.8519 1.06722 20.7326 -1 1 -1
124 7 3 0.033922 31.4545 2.11598 18.3035 -1 1 -1
125 7 3 0.033922 30.006 1.92025 19.3317 -1 1 -1
126 7 3 0.033922 30.8663 3.52855 19.0465 -1 1 -1
127 8 1 -0.091211 41.0766 5.55378 6.58316 -1 0 1
128 8 1 -0.050311 40.9907 6.95255 5.8205 -1 0 1
129 8 2 -0.174311 42.3309 7.6791 5.90119 -1 0 1
130 8 2 -0.174311 -3.6518 8.4432 4.88851 0 0 1
131 8 1 -0.050311 42.5498 8.49093 3.42875 -1 0 1
132 8 1 -0.091211 -3.71928 9.82915 2.78132 0 0 1
133 8 3 0.033922 40.0667 5.13755 6.64249 -1 0 1
134 8 3 0.033922 41.3163 5.80659 7.62012 -1 0 1
135 8 3 0.033922 41.8334 4.8915 6.15286 -1 0 1
136 8 3 0.046089 40.7722 6.82859 4.75582 -1 0 1
137 8 3 0.046089 40.1936 7.56913 6.24606 -1 0 1
138 8 4 0.121889 42.673 7.62794 6.92999 -1 0 1
139 8 4 0.121889 -2.80261 9.02613 5.23069 0 0 1
140 8 3 0.046089 41.4696 8.33805 3.34832 -1 0 1
141 8 3 0.046089 -3.5865 7.68809 2.88214 0 0 1
142 8 3 0.033922 42.5879 9.80631 1.7394 -1 0 1
143 8 3 0.033922 42.3456 10.649 3.22193 -1 0 1
144 8 3 0.033922 -2.63923 10.0015 2.76141 0 0 1
145 9 1 -0.091211 37.6897 6.43778 2.49218 -1 1 1
146 9 1 -0.050311 38.1675 5.03497 2.60678 -1 1 1
147 9 2 -0.174311 37.5459 4.32087 3.84816 -1 1 1
148 9 2 -0.174311 38.0758 3.15718 4.40038 -1 1 1
149 9 1 -0.050311 39.132 2.361 3.79719 -1 1 1
150 9 1 -0.091211 40.4339 2.59403 4.54988 -1 1 1
151 9 3 0.033922 36.7478 6.50346 1.93971 -1 1 1
152 9 3 0.033922 38.5154 6.95167 1.99139 -1 1 1
153 9 3 0.033922 37.5151 6.89484 3.47058 -1 1 1
154 9 3 0.046089 38.0966 4.40482 1.71542 -1 1 1
155 9 3 0.046089 39.2024 5.17227 2.93348 -1 1 1
156 9 4 0.121889 36.6305 4.60303 4.35854 -1 1 1
157 9 4 0.121889 37.5916 2.69778 5.25623 -1 1 1
158 9 3 0.046089 39.2146 2.62168 2.738 -1 1 1
159 9 3 0.046089 38.9093 1.29511 3.90157 -1 1 1
160 9 3 0.033922 40.2097 2.44977 5.61083 -1 1 1
161 9 3 0.033922 41.1322 1.83976 4.17561 -1 1 1
162 9 3 0.033922 40.8036 3.58989 4.28887 -1 1 1
163 10 1 -0.091211 3.54182 10.7209 6.71308 0 0 1
164 10 1 -0.050311 4.2241 9.35765 6.50058 0 0 1
165 10 2 -0.174311 5.69782 9.53581 6.55363 0 0 1
166 10 2 -0.174311 6.47466 9.35225 7.64388 0 0 1
167 10 1 -0.050311 6.04304 9.06194 9.05332 0 0 1
168 10 1 -0.091211 7.20413 9.15097 10.0741 0 0 1
169 10 3 0.033922 3.82551 11.1213 7.69074 0 0 1
170 10 3 0.033922 2.46792 10.5409 6.60828 0 0 1
171 10 3 0.033922 3.90094 11.4823 6.01459 0 0 1
172 10 3 0.046089 3.89388 8.62623 7.24396 0 0 1
173 10 3 0.046089 3.95936 8.89908 5.54336 0 0 1
174 10 4 0.121889 6.31814 9.78473 5.69848 0 0 1
175 10 4 0.121889 7.54473 9.30757 7.46788 0 0 1
176 10 3 0.046089 5.68509 8.02889 9.08916 0 0 1
177 10 3 0.046089 5.26223 9.78423 9.30876 0 0 1
178 10 3 0.033922 8.03358 8.51541 9.75053 0 0 1
179 10 3 0.033922 7.58197 10.1646 10.2367 0 0 1
180 10 3 0.033922 6.84399 8.78229 11.039 0 0 1
181 11 1 -0.091211 -0.68967 15.752 15.5893 0 0 0
182 11 1 -0.050311 -0.543064 17.2662 15.4853 0 0 0
183 11 2 -0.174311 0.138855 17.6532 14.1698 0 0 0
184 11 2 -0.174311 -0.60172 18.3146 13.1283 0 0 0
185 11 1 -0.050311 -2.0381 18.584 13.1375 0 0 0
186 11 1 -0.091211 -2.80974 18.5712 11.8127 0 0 0
187 11 3 0.033922 -1.44873 15.4627 14.8566 0 0 0
188 11 3 0.033922 -0.946389 15.4273 16.6018 0 0 0
189 11 3 0.033922 0.279148 15.3154 15.3297 0 0 0
190 11 3 0.046089 -1.51147 17.7611 15.603 0 0 0
191 11 3 0.046089 0.120404 17.5478 16.3082 0 0 0
192 11 4 0.121889 1.19751 17.5184 13.9721 0 0 0
193 11 4 0.121889 -0.0783696 18.5933 12.2192 0 0 0
194 11 3 0.046089 -2.1542 19.5846 13.5639 0 0 0
195 11 3 0.046089 -2.50525 17.8989 13.8511 0 0 0
196 11 3 0.033922 -2.93879 17.6008 11.3246 0 0 0
197 11 3 0.033922 -3.81559 18.9661 11.9828 0 0 0
198 11 3 0.033922 -2.33875 19.3115 11.1595 0 0 0
199 12 1 -0.091211 -0.861646 9.28647 9.1149 0 0 0
200 12 1 -0.050311 -0.108149 7.95983 9.35224 0 0 0
201 12 2 -0.174311 0.835765 7.77755 8.12531 0 0 0
202 12 2 -0.174311 1.65673 6.69738 7.87536 0 0 0
203 12 1 -0.050311 1.92319 5.52702 8.7144 0 0 0
204 12 1 -0.091211 3.3718 4.91859 8.47614 0 0 0
205 12 3 0.033922 -1.25183 9.78595 10.0065 0 0 0
206 12 3 0.033922 -1.51081 9.22794 8.23637 0 0 0
207 12 3 0.033922 -0.130722 10.0209 8.76426 0 0 0
208 12 3 0.046089 0.511765 7.997 10.2528 0 0 0
209 12 3 0.046089 -0.856552 7.19898 9.59231 0 0 0
210 12 4 0.121889 0.837679 8.5314 7.34446 0 0 0
211 12 4 0.121889 2.15204 6.7662 6.91205 0 0 0
212 12 3 0.046089 1.10291 4.80522 8.66189 0 0 0
213 12 3 0.046089 1.93837 5.89908 9.74299 0 0 0
214 12 3 0.033922 3.33382 4.59729 7.43116 0 0 0
215 12 3 0.033922 4.17967 5.65486 8.51951 0 0 0
216 12 3 0.033922 3.61819 4.08629 9.14187 0 0 0
217 13 1 -0.091211 1.24264 11.0311 1.0431 0 0 1
218 13 1 -0.050311 0.163334 11.9973 1.45673 0 0 1
219 13 2 -0.174311 -0.268807 11.7101 2.91965 0 0 1
220 13 2 -0.174311 0.038709 12.4199 4.04751 0 0 1
221 13 1 -0.050311 0.869784 13.6639 3.98683 0 0 1
222 13 1 -0.091211 1.70204 14.0098 5.25526 0 0 1
223 13 3 0.033922 2.22879 11.3664 1.37731 0 0 1
224 13 3 0.033922 1.23636 10.8845 20.5386 0 0 0
225 13 3 0.033922 1.10353 10.025 1.44923 0 0 1
226 13 3 0.046089 0.403719 13.0491 1.27627 0 0 1
227 13 3 0.046089 -0.73577 11.9721 0.834136 0 0 1
228 13 4 0.121889 -0.84011 10.8273 3.1885 0 0 1
229 13 4 0.121889 -0.243829 12.1653 5.06407 0 0 1
230 13 3 0.046089 0.209738 14.5266 3.85733 0 0 1
231 13 3 0.046089 1.56004 13.6638 3.13819 0 0 1
232 13 3 0.033922 1.40501 13.3643 6.08695 0 0 1
233 13 3 0.033922 2.75704 13.9284 4.97781 0 0 1
234 13 3 0.033922 1.51868 15.0691 5.45718 0 0 1
235 14 1 -0.091211 14.9588 8.87538 8.07233 0 0 0
236 14 1 -0.050311 14.2473 10.2134 7.78686 0 0 0
237 14 2 -0.174311 12.7225 10.0005 7.68808 0 0 0
238 14 2 -0.174311 11.889 9.81445 8.76602 0 0 0
239 14 1 -0.050311 12.2841 10.1361 10.2274 0 0 0
240 14 1 -0.091211 11.5682 11.3706 10.7736 0 0 0
241 14 3 0.033922 14.6546 8.08863 7.37583 0 0 0
242 14 3 0.033922 14.7029 8.49265 9.06462 0 0 0
243 14 3 0.033922 16.0313 9.09018 8.05316 0 0 0
244 14 3 0.046089 14.4491 10.9382 8.58092 0 0 0
245 14 3 0.046089 14.5468 10.7465 6.87985 0 0 0
246 14 4 0.121889 12.4448 9.82786 6.65314 0 0 0
247 14 4 0.121889 10.8664 9.57912 8.48874 0 0 0
248 14 3 0.046089 13.361 10.1811 10.414 0 0 0
249 14 3 0.046089 11.9647 9.31322 10.8736 0 0 0
250 14 3 0.033922 11.6622 11.4769 11.8583 0 0 0
251 14 3 0.033922 12.0748 12.2068 10.283 0 0 0
252 14 3 0.033922 10.5031 11.3558 10.5246 0 0 0
253 15 1 -0.091211 2.84911 17.329 3.88087 0 0 1
254 15 1 -0.050311 3.18336 17.5077 2.40524 0 0 1
255 15 2 -0.174311 1.99757 17.9638 1.57745 0 0 1
256 15 2 -0.174311 1.83247 18.8703 0.587023 0 0 1
257 15 1 -0.050311 2.95188 19.5807 20.5201 0 0 0
258 15 1 -0.091211 3.07691 19.0767 19.0405 0 0 0
259 15 3 0.033922 2.46015 18.2311 4.36197 0 0 1
260 15 3 0.033922 3.7338 16.986 4.42523 0 0 1
261 15 3 0.033922 2.07628 16.5559 3.92315 0 0 1
262 15 3 0.046089 3.98472 18.2489 2.3336 0 0 1
263 15 3 0.046089 3.4618 16.5208 2.02435 0 0 1
264 15 4 0.121889 1.10336 17.5109 1.99374 0 0 1
265 15 4 0.121889 0.850913 19.1005 20.7646 0 0 0
266 15 3 0.046089 3.87814 19.4572 0.509224 0 0 1
267 15 3 0.046089 2.79453 20.663 20.5431 0 0 0
268 15 3 0.033922 3.37163 18.0266 19.1243 0 0 0
269 15 3 0.033922 2.10604 19.0327 18.5384 0 0 0
270 15 3 0.033922 3.76925 19.7307 18.5023 0 0 0
271 16 1 -0.091211 6.91988 4.91679 9.05471 0 1 0
272 16 1 -0.050311 8.10602 5.60049 8.41179 0 1 0
273 16 2 -0.174311 7.81386 6.39694 7.14705 0 1 0
274 16 2 -0.174311 8.84871 6.91613 6.37176 0 1 0
275 16 1 -0.050311 10.2676 6.56447 6.6265 0 1 0
276 16 1 -0.091211 11.2188 7.18761 5.5714 0 1 0
277 16 3 0.033922 6.25236 5.68198 9.46156 0 1 0
278 16 3 0.033922 7.17089 4.3116 9.9307 0 1 0
279 16 3 0.033922 6.32815 4.3311 8.34516 0 1 0
280 16 3 0.046089 8.66498 6.24507 9.09642 0 1 0
281 16 3 0.046089 8.75179 4.76345 8.1308 0 1 0
282 16 4 0.121889 6.79611 6.75999 7.04508 0 1 0
283 16 4 0.121889 8.67232 7.57704 5.52908 0 1 0
284 16 3 0.046089 10.3593 5.49537 6.41384 0 1 0
285 16 3 0.046089 10.6202 6.75883 7.64365 0 1 0
286 16 3 0.033922 11.1072 8.27363 5.63999 0 1 0
287 16 3 0.033922 12.2816 7.03846 5.78332 0 1 0
288 16 3 0.033922 11.0671 6.84029 4.54524 0 1 0
289 17 1 -0.091211 6.82961 10.2553 15.4596 0 0 0
290 17 1 -0.050311 6.24955 11.6879 15.1427 0 0 0
291 17 2 -0.174311 6.01305 11.8506 13.7099 0 0 0
292 17 2 -0.174311 6.50102 12.8021 12.806 0 0 0
293 17 1 -0.050311 7.51653 13.8626 13.1385 0 0 0
294 17 1 -0.091211 8.88866 13.5886 12.5491 0 0 0
295 17 3 0.033922 7.15483 10.1634 16.5 0 0 0
296 17 3 0.033922 7.67791 9.99662 14.8192 0 0 0
297 17 3 0.033922 6.02329 9.53956 15.2749 0 0 0
298 17 3 0.046089 5.31913 11.8315 15.6998 0 0 0
299 17 3 0.046089 6.96158 12.4519 15.468 0 0 0
300 17 4 0.121889 5.30847 11.1817 13.2261 0 0 0
301 17 4 0.121889 6.22263 12.7702 11.7574 0 0 0
302 17 3 0.046089 7.65387 13.9784 14.2176 0 0 0
303 17 3 0.046089 7.17732 14.8345 12.7686 0 0 0
304 17 3 0.033922 9.27797 12.6465 12.9462 0 0 0
305 17 3 0.033922 8.87187 13.5764 11.4554 0 0 0
306 17 3 0.033922 9.56938 14.3891 12.853 0 0 0
307 18 1 -0.091211 39.4521 9.5088 15.9081 -1 0 1
308 18 1 -0.050311 38.6136 9.97175 14.7088 -1 0 1
309 18 2 -0.174311 37.3115 9.27568 14.6959 -1 0 1
310 18 2 -0.174311 36.1445 9.82159 14.2059 -1 0 1
311 18 1 -0.050311 35.9916 11.2651 13.6445 -1 0 1
312 18 1 -0.091211 36.2438 11.31 12.1287 -1 0 1
313 18 3 0.033922 40.4773 9.86463 15.7703 -1 0 1
314 18 3 0.033922 39.472 8.44152 16.1471 -1 0 1
315 18 3 0.033922 39.0937 10.0385 16.7956 -1 0 1
316 18 3 0.046089 38.6007 11.0654 14.7284 -1 0 1
317 18 3 0.046089 39.1302 9.76354 13.7672 -1 0 1
318 18 4 0.121889 37.2136 8.22194 14.9368 -1 0 1
319 18 4 0.121889 35.2681 9.20077 14.0494 -1 0 1
320 18 3 0.046089 36.7593 11.9307 14.0498 -1 0 1
321 18 3 0.046089 34.997 11.6955 13.7934 -1 0 1
322 18 3 0.033922 37.3052 11.28 11.8657 -1 0 1
323 18 3 0.033922 35.7921 10.4473 11.6304 -1 0 1
324 18 3 0.033922 35.7765 12.2504 11.822 -1 0 1
325 19 1 -0.091211 9.46436 11.0999 5.96994 0 0 0
326 19 1 -0.050311 9.99567 11.1562 4.53786 0 0 0
327 19 2 -0.174311 9.85616 12.6069 4.0186 0 0 0
328 19 2 -0.174311 10.7749 13.1329 3.14518 0 0 0
329 19 1 -0.050311 11.9428 12.3154 2.57459 0 0 0
330 19 1 -0.091211 12.2146 12.9541 1.20267 0 0 0
331 19 3 0.033922 9.69672 10.1055 6.36205 0 0 0
332 19 3 0.033922 8.38298 11.2522 6.03361 0 0 0
333 19 3 0.033922 10.0608 11.778 6.58726 0 0 0
334 19 3 0.046089 11.0107 10.7547 4.46542 0 0 0
335 19 3 0.046089 9.41488 10.5416 3.84396 0 0 0
336 19 4 0.121889 9.16161 13.3006 4.48158 0 0 0
337 19 4 0.121889 10.7393 14.1934 2.91697 0 0 0
338 19 3 0.046089 11.7012 11.2553 2.45392 0 0 0
339 19 3 0.046089 12.8185 12.3687 3.22801 0 0 0
340 19 3 0.033922 12.2124 14.047 1.25017 0 0 0
341 19 3 0.033922 13.1586 12.626 0.757798 0 0 0
342 19 3 0.033922 11.4061 12.706 0.508852 0 0 0
343 20 1 -0.091211 9.69332 0.822422 9.45091 0 0 0
344 20 1 -0.050311 11.1165 1.16407 8.96306 0 0 0
345 20 2 -0.174311 10.9866 1.71388 7.56692 0 0 0
346 20 2 -0.174311 11.3243 1.00009 6.44319 0 0 0
347 20 1 -0.050311 11.9156 21.168 6.50151 0 -1 0
348 20 1 -0.091211 12.3434 20.61 5.14408 0 -1 0
349 20 3 0.033922 9.31228 -0.10088 9.00489 0 0 0
350 20 3 0.033922 8.99642 1.63262 9.21742 0 0 0
351 20 3 0.033922 9.69896 0.764562 10.5433 0 0 0
352 20 3 0.046089 11.5363 1.94945 9.59835 0 0 0
353 20 3 0.046089 11.7987 0.308965 8.96024 0 0 0
354 20 4 0.121889 10.5274 2.68217 7.3951 0 0 0
355 20 4 0.121889 11.2083 1.4412 5.4583 0 0 0
356 20 3 0.046089 11.2062 20.5081 7.00928 0 -1 0
357 20 3 0.046089 12.8241 21.1815 7.11073 0 -1 0
358 20 3 0.033922 11.4243 20.4915 4.56282 0 -1 0
359 20 3 0.033922 13.071 21.2777 4.67355 0 -1 0
360 20 3 0.033922 12.7142 19.5822 5.1975 0 -1 0
361 21 1 -0.091211 -1.06814 0.658924 0.728058 0 0 1
362 21 1 -0.050311 -1.17916 1.21684 19.865 0 0 0
363 21 2 -0.174311 0.120578 0.869536 19.1698 0 0 0
364 21 2 -0.174311 0.100297 0.00604493 18.0388 0 0 0
365 21 1 -0.050311 -1.09007 21.0459 17.202 0 -1 0
366 21 1 -0.091211 -1.2215 0.307954 15.9824 0 0 0
367 21 3 0.033922 -1.0741 21.1173 0.619678 0 -1 1
368 21 3 0.033922 -1.94228 0.899955 1.33996 0 0 1
369 21 3 0.033922 -0.179293 1.05975 1.22397 0 0 1
370 21 3 0.046089 -2.0151 0.731044 19.3533 0 0 0
371 21 3 0.046089 -1.28941 2.30463 19.8309 0 0 0
372 21 4 0.121889 1.03427 1.20573 19.6495 0 0 0
373 21 4 0.121889 1.10095 -0.145576 17.6467 0 0 0
374 21 3 0.046089 -2.02601 20.9595 17.7616 0 -1 0
375 21 3 0.046089 -0.830995 20.0302 16.8892 0 -1 0
376 21 3 0.033922 -0.266365 0.149159 15.4734 0 0 0
377 21 3 0.033922 -2.11007 21.5597 15.4168 0 -1 0
378 21 3 0.033922 -1.35159 1.38087 16.1513 0 0 0
379 22 1 -0.091211 8.6085 17.623 9.75006 0 -1 0
380 22 1 -0.050311 9.25302 17.6074 11.1596 0 -1 0
381 22 2 -0.174311 9.26474 18.9693 11.7733 0 -1 0
382 22 2 -0.174311 8.80729 19.2839 13.0229 0 -1 0
383 22 1 -0.050311 8.31631 18.321 14.0927 0 -1 0
384 22 1 -0.091211 8.2995 19.0469 15.4758 0 -1 0
385 22 3 0.033922 8.72546 16.6286 9.3096 0 -1 0
386 22 3 0.033922 9.23267 18.2738 9.13071 0 -1 0
387 22 3 0.033922 7.56048 17.9364 9.74252 0 -1 0
388 22 3 0.046089 8.72359 16.881 11.783 0 -1 0
389 22 3 0.046089 10.2808 17.2547 11.0334 0 -1 0
390 22 4 0.121889 9.65245 19.7193 11.0912 0 -1 0
391 22 4 0.121889 8.86209 20.3415 13.2608 0 -1 0
392 22 3 0.046089 8.92473 17.4134 14.1438 0 -1 0
393 22 3 0.046089 7.30463 18.0413 13.7846 0 -1 0
394 22 3 0.033922 9.31874 19.3217 15.7627 0 -1 0
395 22 3 0.033922 7.7021 19.9629 15.4473 0 -1 0
396 22 3 0.033922 7.88568 18.3167 16.1774 0 -1 0
397 23 1 -0.091211 2.21791 2.92912 1.65956 0 0 0
398 23 1 -0.050311 1.67494 4.3071 1.47105 0 0 0
399 23 2 -0.174311 0.197868 4.45033 1.85658 0 0 0
400 23 2 -0.174311 -0.450428 5.44745 2.65309 0 0 0
401 23 1 -0.050311 0.313818 6.69622 3.14488 0 0 0
402 23 1 -0.091211 0.181962 6.8482 4.62076 0 0 0
403 23 3 0.033922 3.23 2.91291 1.24477 0 0 0
404 23 3 0.033922 1.66995 2.14759 1.12516 0 0 0
405 23 3 0.033922 2.26477 2.6288 2.71039 0 0 0
406 23 3 0.046089 2.31676 5.01121 2.00856 0 0 0
407 23 3 0.046089 1.82388 4.62617 0.435349 0 0 0
408 23 4 0.121889 -0.55651 3.76086 1.49113 0 0 0
409 23 4 0.121889 -1.51545 5.42427 2.861 0 0 0
410 23 3 0.046089 -0.130649 7.53964 2.60848 0 0 0
411 23 3 0.046089 1.37795 6.67042 2.8927 0 0 0
412 23 3 0.033922 0.594548 6.00378 5.18055 0 0 0
413 23 3 0.033922 0.722609 7.74807 4.92825 0 0 0
414 23 3 0.033922 -0.864378 7.07883 4.84126 0 0 0
415 24 1 -0.091211 8.03019 10.07 20.8696 0 0 -1
416 24 1 -0.050311 7.62028 11.5221 0.53217 0 0 0
417 24 2 -0.174311 6.30689 11.9739 20.5843 0 0 -1
418 24 2 -0.174311 5.51458 12.9862 0.493517 0 0 0
419 24 1 -0.050311 6.03423 13.9899 1.53108 0 0 0
420 24 1 -0.091211 5.1724 13.8258 2.85962 0 0 0
421 24 3 0.033922 7.26816 9.39072 0.683086 0 0 0
422 24 3 0.033922 9.01373 10.044 0.768171 0 0 0
423 24 3 0.033922 8.14406 9.78333 19.8201 0 0 -1
424 24 3 0.046089 7.52217 11.7737 1.59222 0 0 0
425 24 3 0.046089 8.39886 12.1138 20.6215 0 0 -1
426 24 4 0.121889 5.76701 11.2892 19.938 0 0 -1
427 24 4 0.121889 4.5112 13.169 20.7018 0 0 -1
428 24 3 0.046089 5.96314 15.0565 1.29886 0 0 0
429 24 3 0.046089 7.1056 13.9047 1.73488 0 0 0
430 24 3 0.033922 4.19881 14.2219 2.55646 0 0 0
431 24 3 0.033922 4.9897 12.7743 3.09926 0 0 0
432 24 3 0.033922 5.65945 14.3802 3.66713 0 0 0
433 25 1 -0.091211 4.61228 7.01664 12.2866 0 0 0
434 25 1 -0.050311 3.53314 7.28085 13.3382 0 0 0
435 25 2 -0.174311 2.24253 6.59697 12.9304 0 0 0
436 25 2 -0.174311 1.20365 6.26109 13.777 0 0 0
437 25 1 -0.050311 1.27314 6.6208 15.3117 0 0 0
438 25 1 -0.091211 1.39306 5.38627 16.1561 0 0 0
439 25 3 0.033922 4.80446 5.94197 12.2178 0 0 0
440 25 3 0.033922 5.51686 7.4582 12.7148 0 0 0
441 25 3 0.033922 4.32426 7.44626 11.3227 0 0 0
442 25 3 0.046089 3.77498 6.87156 14.3235 0 0 0
443 25 3 0.046089 3.42293 8.36531 13.4299 0 0 0
444 25 4 0.121889 2.2716 6.19845 11.9213 0 0 0
445 25 4 0.121889 0.342112 5.72403 13.3932 0 0 0
446 25 3 0.046089 0.364424 7.11008 15.6743 0 0 0
447 25 3 0.046089 2.15035 7.23252 15.5417 0 0 0
448 25 3 0.033922 2.30253 4.85051 15.8689 0 0 0
449 25 3 0.033922 1.42685 5.66553 17.2132 0 0 0
450 25 3 0.033922 0.487891 4.80119 15.9691 0 0 0
451 26 1 -0.091211 4.7171 14.5284 17.8546 0 -1 0
452 26 1 -0.050311 3.37864 14.9234 17.3023 0 -1 0
453 26 2 -0.174311 2.22041 13.9734 17.7787 0 -1 0
454 26 2 -0.174311 1.22479 14.3149 18.679 0 -1 0
455 26 1 -0.050311 1.13394 15.6889 19.3119 0 -1 0
456 26 1 -0.091211 -0.0191356 15.7418 20.3098 0 -1 0
457 26 3 0.033922 4.63054 14.5145 18.945 0 -1 0
458 26 3 0.033922 5.52985 15.1791 17.519 0 -1 0
459 26 3 0.033922 4.88504 13.5013 17.5178 0 -1 0
460 26 3 0.046089 3.19224 15.928 17.6931 0 -1 0
461 26 3 0.046089 3.3839 14.8345 16.212 0 -1 0
462 26 4 0.121889 2.26031 12.9641 17.3816 0 -1 0
463 26 4 0.121889 0.572223 13.5722 19.1268 0 -1 0
464 26 3 0.046089 0.903123 16.4058 18.5186 0 -1 0
465 26 3 0.046089 2.13277 15.9521 19.672 0 -1 0
466 26 3 0.033922 -0.451979 16.7367 20.4493 0 -1 0
467 26 3 0.033922 -0.834638 15.0578 20.0574 0 -1 0
468 26 3 0.033922 0.301029 15.5465 0.75784 0 -1 1
469 27 1 -0.091211 15.1386 14.1673 19.424 0 0 -1
470 27 1 -0.050311 16.151 13.8327 20.5928 0 0 -1
471 27 2 -0.174311 17.4027 13.2887 20.0972 0 0 -1
472 27 2 -0.174311 18.6019 13.2218 20.8127 0 0 -1
473 27 1 -0.050311 18.8011 13.4738 1.69063 0 0 0
474 27 1 -0.091211 19.7014 14.7711 1.85514 0 0 0
475 27 3 0.033922 14.1544 14.3776 19.8526 0 0 -1
476 27 3 0.033922 15.0464 13.3012 18.7623 0 0 -1
477 27 3 0.033922 15.5424 14.9874 18.8231 0 0 -1
478 27 3 0.046089 16.2671 14.7878 0.533685 0 0 0
479 27 3 0.046089 15.7448 13.0367 0.644221 0 0 0
480 27 4 0.121889 17.3718 12.7368 19.1631 0 0 -1
481 27 4 0.121889 19.499 12.9362 20.2726 0 0 -1
482 27 3 0.046089 19.2617 12.6532 2.24841 0 0 0
483 27 3 0.046089 17.8199 13.6819 2.12704 0 0 0
484 27 3 0.033922 19.1336 15.6558 1.55252 0 0 0
485 27 3 0.033922 19.9543 14.9104 2.91026 0 0 0
486 27 3 0.033922 20.6611 14.7037 1.33455 0 0 0
487 28 1 -0.091211 6.75963 17.764 0.38495 0 -1 0
488 28 1 -0.050311 8.1328 17.8881 1.13928 0 -1 0
489 28 2 -0.174311 9.31154 18.2466 20.7931 0 -1 -1
490 28 2 -0.174311 10.1206 19.3756 20.8434 0 -1 -1
491 28 1 -0.050311 9.97263 20.417 1.32469 0 -1 0
492 28 1 -0.091211 11.1408 21.2289 1.4014 0 -1 0
493 28 3 0.033922 5.98066 17.4943 1.10406 0 -1 0
494 28 3 0.033922 6.84164 16.9627 20.2243 0 -1 -1
495 28 3 0.033922 6.4578 18.7145 20.5152 0 -1 -1
496 28 3 0.046089 7.89083 18.6566 1.87923 0 -1 0
497 28 3 0.046089 8.34757 16.9769 1.70512 0 -1 0
498 28 4 0.121889 9.56577 17.5059 20.0417 0 -1 -1
499 28 4 0.121889 10.9306 19.4875 20.1296 0 -1 -1
500 28 3 0.046089 9.8576 19.92 2.29239 0 -1 0
501 28 3 0.046089 9.07584 20.9694 1.02932 0 -1 0
502 28 3 0.033922 10.9262 0.603104 1.95114 0 0 0
503 28 3 0.033922 11.9624 20.7487 1.94092 0 -1 0
504 28 3 0.033922 11.3499 -0.0549044 0.360377 0 0 0
505 29 1 -0.091211 4.34842 9.48055 2.33684 0 0 0
506 29 1 -0.050311 4.20865 8.0148 2.82345 0 0 0
507 29 2 -0.174311 5.52869 7.53344 3.42541 0 0 0
508 29 2 -0.174311 5.57446 6.40977 4.24337 0 0 0
509 29 1 -0.050311 4.34697 5.56729 4.55062 0 0 0
510 29 1 -0.091211 4.71932 4.10886 4.55674 0 0 0
511 29 3 0.033922 4.76442 9.6274 1.33583 0 0 0
512 29 3 0.033922 5.14299 9.95077 2.92352 0 0 0
513 29 3 0.033922 3.43267 10.0324 2.56819 0 0 0
514 29 3 0.046089 3.38724 8.00148 3.54577 0 0 0
515 29 3 0.046089 4.00716 7.3355 1.99003 0 0 0
516 29 4 0.121889 6.4796 8.01243 3.21482 0 0 0
517 29 4 0.121889 6.5001 6.00971 4.64482 0 0 0
518 29 3 0.046089 3.51534 5.74979 3.8638 0 0 0
519 29 3 0.046089 4.01427 5.8542 5.55244 0 0 0
520 29 3 0.033922 5.19885 3.85051 3.60808 0 0 0
521 29 3 0.033922 5.42287 3.98424 5.38508 0 0 0
522 29 3 0.033922 3.85738 3.45265 4.70863 0 0 0
523 30 1 -0.091211 2.1385 21.2471 7.035 0 0 1
524 30 1 -0.050311 2.51441 0.186376 8.47019 0 1 1
525 30 2 -0.174311 3.27604 20.6197 9.1238 0 0 1
526 30 2 -0.174311 4.51713 20.7193 9.81596 0 0 1
527 30 1 -0.050311 5.29028 0.424671 10.1833 0 1 1
528 30 1 -0.091211 5.96456 0.311216 11.5443 0 1 1
529 30 3 0.033922 1.40295 20.4376 7.02236 0 0 1
530 30 3 0.033922 2.9567 20.8262 6.4434 0 0 1
531 30 3 0.033922 1.78888 0.504854 6.38155 0 1 1
532 30 3 0.046089 3.16661 1.05155 8.31946 0 1 1
533 30 3 0.046089 1.55636 0.413744 8.94672 0 1 1
534 30 4 0.121889 2.96834 19.602 8.9056 0 0 1
535 30 4 0.121889 4.97485 19.7994 10.1655 0 0 1
536 30 3 0.046089 4.6958 1.34114 10.1259 0 1 1
537 30 3 0.046089 5.99582 0.593557 9.36451 0 1 1
538 30 3 0.033922 6.75412 1.06746 11.5806 0 1 1
539 30 3 0.033922 5.20776 0.393153 12.3299 0 1 1
540 30 3 0.033922 6.38623 20.851 11.6119 0 0 1
541 31 1 -0.091211 18.0212 2.00461 17.0097 0 1 0
542 31 1 -0.050311 19.1003 0.918994 17.015 0 1 0
543 31 2 -0.174311 20.3715 1.64628 17.0239 0 1 0
544 31 2 -0.174311 21.1739 1.79486 15.9332 0 1 0
545 31 1 -0.050311 21.0721 0.931504 14.6746 0 1 0
546 31 1 -0.091211 22.3903 1.01472 13.8671 0 1 0
547 31 3 0.033922 18.0578 2.41559 18.0228 0 1 0
548 31 3 0.033922 17.0462 1.60344 16.7181 0 1 0
549 31 3 0.033922 18.2067 2.75725 16.2379 0 1 0
550 31 3 0.046089 18.9911 0.296537 17.9079 0 1 0
551 31 3 0.046089 18.9633 0.382729 16.0714 0 1 0
552 31 4 0.121889 20.5973 2.27039 17.8827 0 1 0
553 31 4 0.121889 22.0672 2.39289 16.0825 0 1 0
554 31 3 0.046089 20.2124 1.19184 14.0504 0 1 0
555 31 3 0.046089 20.865 21.4393 14.9464 0 0 0
556 31 3 0.033922 22.5718 2.01142 13.4544 0 1 0
557 31 3 0.033922 23.3217 0.700759 14.3473 0 1 0
558 31 3 0.033922 22.2822 0.41961 12.9556 0 1 0
559 32 1 -0.091211 16.032 0.561483 6.7929 0 1 0
560 32 1 -0.050311 15.0385 1.76209 6.55637 0 1 0
561 32 2 -0.174311 15.7166 2.84156 5.65555 0 1 0
562 32 2 -0.174311 15.0591 3.85634 5.0152 0 1 0
563 32 1 -0.050311 13.6268 4.23299 5.19058 0 1 0
564 32 1 -0.091211 12.8343 3.71401 3.97849 0 1 0
565 32 3 0.033922 15.5397 -0.209313 7.39295 0 1 0
566 32 3 0.033922 16.8739 0.976635 7.35466 0 1 0
567 32 3 0.033922 16.2805 21.6074 5.85275 0 0 0
568 32 3 0.046089 14.1578 1.34304 6.0609 0 1 0
569 32 3 0.046089 14.74 2.23149 7.49831 0 1 0
570 32 4 0.121889 16.7954 2.72616 5.62816 0 1 0
571 32 4 0.121889 15.6258 4.54866 4.40073 0 1 0
572 32 3 0.046089 13.5897 5.32072 5.3004 0 1 0
573 32 3 0.046089 13.2255 3.77975 6.10171 0 1 0
574 32 3 0.033922 11.7826 3.71508 4.27955 0 1 0
575 32 3 0.033922 13.0612 4.33484 3.10689 0 1 0
576 32 3 0.033922 13.0191 2.65704 3.76582 0 1 0
577 33 1 -0.091211 13.4967 8.60713 13.6065 0 0 0
578 33 1 -0.050311 14.2215 9.44135 14.7187 0 0 0
579 33 2 -0.174311 15.5523 9.95872 14.336 0 0 0
580 33 2 -0.174311 16.0918 11.2069 14.7107 0 0 0
581 33 1 -0.050311 15.3051 12.3674 15.4744 0 0 0
582 33 1 -0.091211 15.9699 13.7037 15.2324 0 0 0
583 33 3 0.033922 14.1566 7.79191 13.2958 0 0 0
584 33 3 0.033922 13.3588 9.26819 12.7459 0 0 0
585 33 3 0.033922 12.6115 8.08841 13.986 0 0 0
586 33 3 0.046089 13.5659 10.249 15.0573 0 0 0
587 33 3 0.046089 14.3964 8.65438 15.4581 0 0 0
588 33 4 0.121889 16.2026 9.33544 13.7304 0 0 0
589 33 4 0.121889 17.0746 11.5556 14.4099 0 0 0
590 33 3 0.046089 15.2391 12.1311 16.5405 0 0 0
591 33 3 0.046089 14.2889 12.4699 15.0828 0 0 0
592 33 3 0.033922 16.8994 13.7456 15.8076 0 0 0
593 33 3 0.033922 16.1942 13.821 14.1682 0 0 0
594 33 3 0.033922 15.3588 14.4694 15.7191 0 0 0
595 34 1 -0.091211 15.876 18.6314 8.73799 0 0 0
596 34 1 -0.050311 15.4993 17.863 10.0499 0 0 0
597 34 2 -0.174311 14.0113 17.8461 10.1799 0 0 0
598 34 2 -0.174311 13.2347 18.926 10.5014 0 0 0
599 34 1 -0.050311 13.5805 20.3333 10.9037 0 0 0
600 34 1 -0.091211 12.5915 20.802 11.9568 0 0 0
601 34 3 0.033922 15.5455 18.1187 7.82994 0 0 0
602 34 3 0.033922 16.9427 18.8564 8.64798 0 0 0
603 34 3 0.033922 15.4454 19.637 8.7343 0 0 0
604 34 3 0.046089 15.9032 16.8603 9.88178 0 0 0
605 34 3 0.046089 15.9532 18.3307 10.9284 0 0 0
606 34 4 0.121889 13.3978 17.0662 9.74003 0 0 0
607 34 4 0.121889 12.1629 18.7809 10.4109 0 0 0
608 34 3 0.046089 13.7241 20.9246 9.99463 0 0 0
609 34 3 0.046089 14.5909 20.3295 11.3227 0 0 0
610 34 3 0.033922 11.5616 20.8281 11.5891 0 0 0
611 34 3 0.033922 12.6354 20.1327 12.821 0 0 0
612 34 3 0.033922 12.8239 0.272964 12.2832 0 1 0
613 35 1 -0.091211 37.4143 12.5557 17.5622 -1 0 0
614 35 1 -0.050311 37.7484 12.8668 19.002 -1 0 0
615 35 2 -0.174311 39.1819 12.4474 19.2372 -1 0 0
616 35 2 -0.174311 39.7045 11.9307 20.3348 -1 0 0