ITEM: TIMESTEP
22000
ITEM: NUMBER OF ATOMS
1800
ITEM: BOX BOUNDS pp pp pp
-1.1050250336323977e+00 3.9913040533632518e+01
1.7015998779083397e-01 2.1438495512209492e+01
-2.2337833023888667e+00 2.3487516802388964e+01
ITEM: ATOMS id mol type q x y z ix iy iz
1 1 1 -0.091211 6.61788 14.9275 4.68671 0 -1 0
2 1 1 -0.050311 6.98744 16.4063 5.08796 0 -1 0
3 1 2 -0.174311 5.71849 17.109 5.40573 0 -1 0
4 1 2 -0.174311 5.5794 18.1082 6.35292 0 -1 0
5 1 1 -0.050311 6.66811 18.5588 7.27979 0 -1 0
6 1 1 -0.091211 7.77748 19.3972 6.49187 0 -1 0
7 1 3 0.033922 6.02522 14.4937 5.49736 0 -1 0
8 1 3 0.033922 7.47923 14.3358 4.36345 0 -1 0
9 1 3 0.033922 5.87838 14.9727 3.88192 0 -1 0
10 1 3 0.046089 7.7087 16.2577 5.89684 0 -1 0
11 1 3 0.046089 7.32938 16.8374 4.14252 0 -1 0
12 1 4 0.121889 4.82819 16.9112 4.81732 0 -1 0
13 1 4 0.121889 4.63346 18.6397 6.3796 0 -1 0
14 1 3 0.046089 7.12272 17.6375 7.65556 0 -1 0
15 1 3 0.046089 6.33488 19.1368 8.14661 0 -1 0
16 1 3 0.033922 8.62007 19.5257 7.17751 0 -1 0
17 1 3 0.033922 8.13929 18.8307 5.62888 0 -1 0
18 1 3 0.033922 7.40047 20.3336 6.0705 0 -1 0
19 2 1 -0.091211 4.77481 6.3113 19.7652 0 0 0
20 2 1 -0.050311 5.59353 6.45959 18.4693 0 0 0
21 2 2 -0.174311 6.56047 5.36528 18.2295 0 0 0
22 2 2 -0.174311 7.76464 5.41671 17.5612 0 0 0
23 2 1 -0.050311 8.16544 6.61907 16.7691 0 0 0
24 2 1 -0.091211 9.29768 6.41008 15.8516 0 0 0
25 2 3 0.033922 5.28804 5.90685 20.6424 0 0 0
26 2 3 0.033922 3.96785 5.60169 19.5606 0 0 0
27 2 3 0.033922 4.43534 7.3005 20.0858 0 0 0
28 2 3 0.046089 4.9261 6.53106 17.6056 0 0 0
29 2 3 0.046089 6.09454 7.43184 18.4861 0 0 0
30 2 4 0.121889 6.47396 4.4557 18.8153 0 0 0
31 2 4 0.121889 8.39409 4.55497 17.7591 0 0 0
32 2 3 0.046089 8.51134 7.36081 17.4949 0 0 0
33 2 3 0.046089 7.31874 7.10024 16.271 0 0 0
34 2 3 0.033922 9.03401 5.83789 14.9574 0 0 0
35 2 3 0.033922 9.62288 7.39306 15.4987 0 0 0
36 2 3 0.033922 10.1261 5.87393 16.3237 0 0 0
37 3 1 -0.091211 3.24113 5.76572 8.37231 0 0 0
38 3 1 -0.050311 3.6904 7.10985 9.02513 0 0 0
39 3 2 -0.174311 5.22496 7.16582 9.37092 0 0 0
40 3 2 -0.174311 5.80901 8.2235 10.0161 0 0 0
41 3 1 -0.050311 4.97553 9.4609 10.2962 0 0 0
42 3 1 -0.091211 5.78351 10.256 11.3614 0 0 0
43 3 3 0.033922 3.98951 5.44085 7.64364 0 0 0
44 3 3 0.033922 2.38211 6.00267 7.73787 0 0 0
45 3 3 0.033922 2.89834 5.03987 9.11542 0 0 0
46 3 3 0.046089 3.62848 7.80737 8.18478 0 0 0
47 3 3 0.046089 3.05447 7.33037 9.88741 0 0 0
48 3 4 0.121889 5.82664 6.33108 9.02572 0 0 0
49 3 4 0.121889 6.85822 8.19766 10.2926 0 0 0
50 3 3 0.046089 4.00816 9.27026 10.7699 0 0 0
51 3 3 0.046089 4.93784 10.0341 9.36525 0 0 0
52 3 3 0.033922 5.3455 11.2396 11.5548 0 0 0
53 3 3 0.033922 5.91593 9.66785 12.2742 0 0 0
54 3 3 0.033922 6.75734 10.5049 10.9298 0 0 0
55 4 1 -0.091211 5.12422 3.56964 4.63524 0 0 0
56 4 1 -0.050311 5.6369 2.13033 4.78738 0 0 0
57 4 2 -0.174311 4.725 1.13623 4.09764 0 0 0
58 4 2 -0.174311 5.16199 21.2714 3.48119 0 -1 0
59 4 1 -0.050311 6.55402 20.7427 3.58516 0 -1 0
60 4 1 -0.091211 7.15754 20.5549 2.18612 0 -1 0
61 4 3 0.033922 4.94551 3.78619 3.57801 0 0 0
62 4 3 0.033922 5.86522 4.2347 5.08823 0 0 0
63 4 3 0.033922 4.20736 3.72985 5.20995 0 0 0
64 4 3 0.046089 6.63497 2.13413 4.33967 0 0 0
65 4 3 0.046089 5.68069 1.89331 5.85437 0 0 0
66 4 4 0.121889 3.68096 1.41691 4.00187 0 0 0
67 4 4 0.121889 4.39104 20.5461 3.2415 0 -1 0
68 4 3 0.046089 6.43928 19.7866 4.10414 0 -1 0
69 4 3 0.046089 7.19316 21.4536 4.11673 0 -1 0
70 4 3 0.033922 8.13738 20.0715 2.23911 0 -1 0
71 4 3 0.033922 6.45133 19.9405 1.6201 0 -1 0
72 4 3 0.033922 7.27434 0.264544 1.71017 0 0 0
73 5 1 -0.091211 -0.491548 3.23431 9.00737 0 0 0
74 5 1 -0.050311 -0.0310542 4.19736 7.86879 0 0 0
75 5 2 -0.174311 39.9958 4.07776 6.77271 -1 0 0
76 5 2 -0.174311 39.804 5.00264 5.73241 -1 0 0
77 5 1 -0.050311 -0.508164 6.29765 5.65105 0 0 0
78 5 1 -0.091211 39.6913 7.34613 4.94984 -1 0 0
79 5 3 0.033922 39.5359 3.43168 9.42719 -1 0 0
80 5 3 0.033922 0.148608 3.31433 9.89076 0 0 0
81 5 3 0.033922 -0.525765 2.19569 8.66583 0 0 0
82 5 3 0.046089 0.0971116 5.2222 8.22913 0 0 0
83 5 3 0.046089 0.832126 3.76742 7.35241 0 0 0
84 5 4 0.121889 39.3533 3.22245 6.58975 -1 0 0
85 5 4 0.121889 39.0363 4.77737 4.99897 -1 0 0
86 5 3 0.046089 0.428648 6.14616 5.10698 0 0 0
87 5 3 0.046089 -0.353113 6.70532 6.65421 0 0 0
88 5 3 0.033922 -0.815436 8.30777 4.84806 0 0 0
89 5 3 0.033922 39.4387 6.93601 3.96772 -1 0 0
90 5 3 0.033922 38.7511 7.52294 5.48031 -1 0 0
91 6 1 -0.091211 13.2281 7.33415 -1.9625 0 0 1
92 6 1 -0.050311 11.7568 7.33415 23.3257 0 0 0
93 6 2 -0.174311 10.9117 6.45407 -1.43657 0 0 1
94 6 2 -0.174311 9.93661 5.55883 -1.80186 0 0 1
95 6 1 -0.050311 9.43249 5.29432 22.5409 0 0 0
96 6 1 -0.091211 10.2616 4.23429 21.8157 0 0 0
97 6 3 0.033922 13.3084 7.5409 -0.891342 0 0 1
98 6 3 0.033922 13.6955 8.12539 23.1655 0 0 0
99 6 3 0.033922 13.8307 6.47949 23.4378 0 0 0
100 6 3 0.046089 11.3544 8.34544 23.4348 0 0 0
101 6 3 0.046089 11.6697 6.9864 22.2923 0 0 0
102 6 4 0.121889 11.0739 6.47799 -0.363691 0 0 1
103 6 4 0.121889 9.50145 4.99018 -0.986235 0 0 1
104 6 3 0.046089 9.36177 6.17927 21.9018 0 0 0
105 6 3 0.046089 8.37699 5.01293 22.5987 0 0 0
106 6 3 0.033922 10.1742 4.31861 20.7286 0 0 0
107 6 3 0.033922 11.3063 4.41146 22.0874 0 0 0
108 6 3 0.033922 9.98464 3.19702 22.0253 0 0 0
109 7 1 -0.091211 36.4134 13.9075 10.7394 -1 0 0
110 7 1 -0.050311 37.4432 13.2399 9.84597 -1 0 0
111 7 2 -0.174311 38.6309 14.1271 9.89399 -1 0 0
112 7 2 -0.174311 39.5273 14.3683 8.8866 -1 0 0
113 7 1 -0.050311 39.3625 13.8399 7.48651 -1 0 0
114 7 1 -0.091211 38.6817 14.7937 6.57917 -1 0 0
115 7 3 0.033922 36.2731 14.9673 10.5077 -1 0 0
116 7 3 0.033922 36.6994 13.7926 11.789 -1 0 0
117 7 3 0.033922 35.4463 13.4669 10.4803 -1 0 0
118 7 3 0.046089 37.6389 12.2001 10.1237 -1 0 0
119 7 3 0.046089 37.0861 13.1579 8.81525 -1 0 0
120 7 4 0.121889 38.9361 14.7449 10.7325 -1 0 0
121 7 4 0.121889 -0.743498 15.1343 9.06784 0 0 0
122 7 3 0.046089 38.8301 12.8903 7.59313 -1 0 0
123 7 3 0.046089 -0.706554 13.5831 7.00683 0 0 0
124 7 3 0.033922 39.2579 15.7151 6.45441 -1 0 0
125 7 3 0.033922 38.4972 14.3358 5.60306 -1 0 0
126 7 3 0.033922 37.7091 15.0847 6.98651 -1 0 0
127 8 1 -0.091211 -0.924284 4.60384 13.6807 0 0 0
128 8 1 -0.050311 -0.619863 4.82842 15.1533 0 0 0
129 8 2 -0.174311 0.732719 5.40943 15.2286 0 0 0
130 8 2 -0.174311 1.68229 5.32811 16.2866 0 0 0
131 8 1 -0.050311 1.31847 4.59769 17.5622 0 0 0
132 8 1 -0.091211 2.12324 3.35341 17.5429 0 0 0
133 8 3 0.033922 -0.135696 4.03754 13.1767 0 0 0
134 8 3 0.033922 -0.95174 5.59483 13.2184 0 0 0
135 8 3 0.033922 39.1378 4.09365 13.5312 -1 0 0
136 8 3 0.046089 39.6018 5.4463 15.5781 -1 0 0
137 8 3 0.046089 -0.608336 3.87141 15.683 0 0 0
138 8 4 0.121889 1.19306 5.90677 14.3808 0 0 0
139 8 4 0.121889 2.65943 5.79925 16.2522 0 0 0
140 8 3 0.046089 0.251732 4.41536 17.7217 0 0 0
141 8 3 0.046089 1.68526 5.14764 18.4338 0 0 0
142 8 3 0.033922 1.96353 2.77444 18.4572 0 0 0
143 8 3 0.033922 1.86637 2.64535 16.7497 0 0 0
144 8 3 0.033922 3.1987 3.55281 17.528 0 0 0
145 9 1 -0.091211 0.375697 5.46362 21.3723 0 0 0
146 9 1 -0.050311 -0.0375483 6.92648 21.46 0 0 0
147 9 2 -0.174311 -0.829172 7.44751 20.2791 0 0 0
148 9 2 -0.174311 39.5164 8.6127 20.2928 -1 0 0
149 9 1 -0.050311 39.3539 9.46447 21.4872 -1 0 0
150 9 1 -0.091211 38.0181 10.2203 21.4185 -1 0 0
151 9 3 0.033922 -0.547824 4.92314 21.1452 0 0 0
152 9 3 0.033922 0.832214 5.15279 22.3165 0 0 0
153 9 3 0.033922 1.18089 5.34653 20.6412 0 0 0
154 9 3 0.046089 -0.639924 7.04425 22.3655 0 0 0
155 9 3 0.046089 0.81958 7.60007 21.5505 0 0 0
156 9 4 0.121889 -0.825326 7.10306 19.2499 0 0 0
157 9 4 0.121889 39.2536 8.87647 19.2733 -1 0 0
158 9 3 0.046089 -0.934767 10.2797 21.487 0 0 0
159 9 3 0.046089 39.4522 8.95457 22.45 -1 0 0
160 9 3 0.033922 37.9269 10.7767 20.4811 -1 0 0
161 9 3 0.033922 37.1264 9.59499 21.5214 -1 0 0
162 9 3 0.033922 38.01 10.9815 22.204 -1 0 0
163 10 1 -0.091211 8.45139 10.2786 6.27948 0 0 1
164 10 1 -0.050311 7.00035 10.0551 5.75126 0 0 1
165 10 2 -0.174311 6.34159 8.81369 6.30969 0 0 1
166 10 2 -0.174311 5.40397 7.9894 5.65761 0 0 1
167 10 1 -0.050311 4.76252 8.24244 4.36037 0 0 1
168 10 1 -0.091211 3.24855 8.22964 4.52856 0 0 1
169 10 3 0.033922 8.43659 10.4278 7.36302 0 0 1
170 10 3 0.033922 8.80022 11.2529 5.92506 0 0 1
171 10 3 0.033922 9.06485 9.38397 6.13827 0 0 1
172 10 3 0.046089 6.30913 10.8286 6.09836 0 0 1
173 10 3 0.046089 7.02446 10.088 4.65814 0 0 1
174 10 4 0.121889 6.59178 8.62314 7.34847 0 0 1
175 10 4 0.121889 5.04201 7.10388 6.17022 0 0 1
176 10 3 0.046089 5.06823 7.42559 3.70018 0 0 1
177 10 3 0.046089 5.09921 9.18271 3.91415 0 0 1
178 10 3 0.033922 2.8452 8.77815 5.38472 0 0 1
179 10 3 0.033922 2.79167 8.57345 3.59602 0 0 1
180 10 3 0.033922 2.99096 7.18506 4.72617 0 0 1
181 11 1 -0.091211 1.90746 11.1251 -1.85201 0 0 0
182 11 1 -0.050311 1.08767 10.8313 -0.505193 0 0 0
183 11 2 -0.174311 1.74418 11.2134 0.758319 0 0 0
184 11 2 -0.174311 1.3533 10.9101 2.04355 0 0 0
185 11 1 -0.050311 -0.0190611 10.3579 2.31897 0 0 0
186 11 1 -0.091211 -0.599047 11.0723 3.56815 0 0 0
187 11 3 0.033922 2.32151 12.1345 -1.93031 0 0 0
188 11 3 0.033922 1.19309 11.0375 23.0455 0 0 -1
189 11 3 0.033922 2.68488 10.3645 -1.96894 0 0 0
190 11 3 0.046089 0.216981 11.4934 -0.51805 0 0 0
191 11 3 0.046089 0.707871 9.8056 -0.490673 0 0 0
192 11 4 0.121889 2.74065 11.635 0.672882 0 0 0
193 11 4 0.121889 2.03415 11.1901 2.84104 0 0 0
194 11 3 0.046089 0.0473612 9.31059 2.62752 0 0 0
195 11 3 0.046089 -0.679826 10.5763 1.47499 0 0 0
196 11 3 0.033922 39.396 10.821 3.86301 -1 0 0
197 11 3 0.033922 0.0980573 11.0745 4.41114 0 0 0
198 11 3 0.033922 -0.770068 12.1025 3.24249 0 0 0
199 12 1 -0.091211 1.98392 11.9695 7.68899 0 0 0
200 12 1 -0.050311 2.77533 12.1547 6.34993 0 0 0
201 12 2 -0.174311 3.27684 13.594 6.42108 0 0 0
202 12 2 -0.174311 2.92598 14.6252 5.57333 0 0 0
203 12 1 -0.050311 1.93688 14.6379 4.41327 0 0 0
204 12 1 -0.091211 1.18366 15.9033 4.3269 0 0 0
205 12 3 0.033922 1.17337 12.6727 7.90125 0 0 0
206 12 3 0.033922 2.66992 12.1274 8.52627 0 0 0
207 12 3 0.033922 1.56399 10.9677 7.81784 0 0 0
208 12 3 0.046089 3.62566 11.4807 6.21126 0 0 0
209 12 3 0.046089 2.13237 12.1055 5.46632 0 0 0
210 12 4 0.121889 3.86598 13.8627 7.29212 0 0 0
211 12 4 0.121889 3.44089 15.5032 5.95022 0 0 0
212 12 3 0.046089 1.20639 13.8239 4.39634 0 0 0
213 12 3 0.046089 2.54719 14.512 3.51425 0 0 0
214 12 3 0.033922 0.719638 16.1811 5.27773 0 0 0
215 12 3 0.033922 1.86748 16.6912 3.99805 0 0 0
216 12 3 0.033922 0.333656 15.845 3.64083 0 0 0
217 13 1 -0.091211 7.58243 13.1806 9.71618 0 0 0
218 13 1 -0.050311 6.73566 14.3685 10.2033 0 0 0
219 13 2 -0.174311 5.78649 14.8205 9.23325 0 0 0
220 13 2 -0.174311 4.56938 15.3712 9.53357 0 0 0
221 13 1 -0.050311 3.96737 15.451 10.9016 0 0 0
222 13 1 -0.091211 2.94914 14.336 11.1391 0 0 0
223 13 3 0.033922 6.89241 12.4376 9.30576 0 0 0
224 13 3 0.033922 8.2301 12.7193 10.4674 0 0 0
225 13 3 0.033922 8.18575 13.6595 8.93947 0 0 0
226 13 3 0.046089 6.22838 14.0156 11.1059 0 0 0
227 13 3 0.046089 7.39478 15.2094 10.4378 0 0 0
228 13 4 0.121889 6.28516 14.8862 8.2715 0 0 0
229 13 4 0.121889 4.10881 15.8845 8.69552 0 0 0
230 13 3 0.046089 3.49432 16.4256 11.0528 0 0 0
231 13 3 0.046089 4.78326 15.373 11.626 0 0 0
232 13 3 0.033922 2.05294 14.3794 10.5134 0 0 0
233 13 3 0.033922 3.34741 13.3583 10.8528 0 0 0
234 13 3 0.033922 2.57259 14.3018 12.1656 0 0 0
235 14 1 -0.091211 11.3277 7.30576 19.1421 0 0 0
236 14 1 -0.050311 12.3335 8.48362 18.8696 0 0 0
237 14 2 -0.174311 13.1095 8.16358 17.5951 0 0 0
238 14 2 -0.174311 13.4644 9.16513 16.7345 0 0 0
239 14 1 -0.050311 13.2789 10.5777 17.0031 0 0 0
240 14 1 -0.091211 12.6115 11.3249 15.812 0 0 0
241 14 3 0.033922 11.8525 6.37241 19.3657 0 0 0
242 14 3 0.033922 10.7197 7.10662 18.2548 0 0 0
243 14 3 0.033922 10.6679 7.47155 19.9987 0 0 0
244 14 3 0.046089 11.776 9.42076 18.7824 0 0 0
245 14 3 0.046089 12.948 8.55274 19.7719 0 0 0
246 14 4 0.121889 13.1713 7.11009 17.3415 0 0 0
247 14 4 0.121889 14.0571 8.93122 15.8559 0 0 0
248 14 3 0.046089 14.2981 10.9386 17.1689 0 0 0
249 14 3 0.046089 12.7264 10.7521 17.9309 0 0 0
250 14 3 0.033922 12.6751 12.4094 15.9403 0 0 0
251 14 3 0.033922 13.1787 11.0046 14.9332 0 0 0
252 14 3 0.033922 11.5875 10.9425 15.8547 0 0 0
253 15 1 -0.091211 3.70488 19.2773 21.1529 0 0 0
254 15 1 -0.050311 3.15931 18.7834 19.8542 0 0 0
255 15 2 -0.174311 4.27248 17.9868 19.1308 0 0 0
256 15 2 -0.174311 4.27813 16.7341 18.5926 0 0 0
257 15 1 -0.050311 2.98217 15.8373 18.447 0 0 0
258 15 1 -0.091211 2.84371 14.9433 19.7021 0 0 0
259 15 3 0.033922 4.10017 18.417 21.7008 0 0 0
260 15 3 0.033922 2.90303 19.6617 21.7899 0 0 0
261 15 3 0.033922 4.41209 20.0885 20.9571 0 0 0
262 15 3 0.046089 2.25913 18.173 19.9713 0 0 0
263 15 3 0.046089 2.8486 19.64 19.249 0 0 0
264 15 4 0.121889 5.29925 18.3374 19.159 0 0 0
265 15 4 0.121889 5.18604 16.3995 18.1009 0 0 0
266 15 3 0.046089 3.0737 15.0971 17.6469 0 0 0
267 15 3 0.046089 2.10261 16.4776 18.3329 0 0 0
268 15 3 0.033922 2.75106 15.4615 20.6611 0 0 0
269 15 3 0.033922 1.9775 14.3027 19.5127 0 0 0
270 15 3 0.033922 3.75574 14.3469 19.797 0 0 0
271 16 1 -0.091211 11.2551 17.4412 1.66719 0 0 0
272 16 1 -0.050311 10.3143 18.5012 2.1363 0 0 0
273 16 2 -0.174311 10.5523 19.1062 3.46444 0 0 0
274 16 2 -0.174311 10.635 20.42 3.85892 0 0 0
275 16 1 -0.050311 10.6372 0.369616 3.0053 0 1 0
276 16 1 -0.091211 10.0801 1.67501 3.71683 0 1 0
277 16 3 0.033922 12.285 17.7815 1.52584 0 0 0
278 16 3 0.033922 10.9103 17.0234 0.716837 0 0 0
279 16 3 0.033922 11.2455 16.5895 2.35358 0 0 0
280 16 3 0.046089 10.2658 19.2736 1.36325 0 0 0
281 16 3 0.046089 9.31379 18.0607 2.17363 0 0 0
282 16 4 0.121889 10.4364 18.4118 4.29049 0 0 0
283 16 4 0.121889 10.8668 20.6398 4.89619 0 0 0
284 16 3 0.046089 10.1431 21.3943 2.06026 0 0 0
285 16 3 0.046089 11.697 0.532924 2.78871 0 1 0
286 16 3 0.033922 10.0346 2.48917 2.98769 0 1 0
287 16 3 0.033922 9.06702 1.39881 4.0233 0 1 0
288 16 3 0.033922 10.7334 1.91043 4.56207 0 1 0
289 17 1 -0.091211 6.23096 18.5019 12.0531 0 0 0
290 17 1 -0.050311 5.31521 19.207 13.0035 0 0 0
291 17 2 -0.174311 5.81149 19.1371 14.4999 0 0 0
292 17 2 -0.174311 6.99576 19.6531 15.0564 0 0 0
293 17 1 -0.050311 7.94717 20.6395 14.2876 0 0 0
294 17 1 -0.091211 8.34944 0.617442 15.0819 0 1 0
295 17 3 0.033922 7.1987 19.0108 12.0856 0 0 0
296 17 3 0.033922 5.84254 18.5185 11.0306 0 0 0
297 17 3 0.033922 6.39061 17.4512 12.3121 0 0 0
298 17 3 0.046089 5.20863 20.2531 12.702 0 0 0
299 17 3 0.046089 4.42969 18.5814 12.8585 0 0 0
300 17 4 0.121889 5.21935 18.5633 15.2056 0 0 0
301 17 4 0.121889 7.17633 19.3517 16.0833 0 0 0
302 17 3 0.046089 7.38793 20.9353 13.3952 0 0 0
303 17 3 0.046089 8.80113 19.9906 14.0727 0 0 0
304 17 3 0.033922 8.94545 1.24244 14.4105 0 1 0
305 17 3 0.033922 7.4394 1.1908 15.281 0 1 0
306 17 3 0.033922 8.88593 0.384943 16.0064 0 1 0
307 18 1 -0.091211 5.98602 16.3325 1.04745 0 0 1
308 18 1 -0.050311 4.62529 17.0729 0.954799 0 0 1
309 18 2 -0.174311 3.57691 16.0504 0.850438 0 0 1
310 18 2 -0.174311 2.3903 16.2523 0.222382 0 0 1
311 18 1 -0.050311 1.91465 17.5571 -0.311261 0 0 1
312 18 1 -0.091211 1.99222 17.5459 -1.84189 0 0 1
313 18 3 0.033922 6.12989 15.6801 0.181321 0 0 1
314 18 3 0.033922 6.02073 15.6805 1.92508 0 0 1
315 18 3 0.033922 6.77195 17.0884 1.13433 0 0 1
316 18 3 0.046089 4.5662 17.6279 1.89555 0 0 1
317 18 3 0.046089 4.70845 17.7246 0.0802274 0 0 1
318 18 4 0.121889 3.83667 15.056 1.19931 0 0 1
319 18 4 0.121889 1.70269 15.4217 0.0993069 0 0 1
320 18 3 0.046089 2.56645 18.3571 0.0517279 0 0 1
321 18 3 0.046089 0.899833 17.7817 0.0297598 0 0 1
322 18 3 0.033922 1.41893 18.4099 -2.19022 0 0 1
323 18 3 0.033922 2.99795 17.7398 -2.22593 0 0 1
324 18 3 0.033922 1.55259 16.6055 23.5345 0 0 0
325 19 1 -0.091211 16.825 5.31939 -0.00435165 0 0 0
326 19 1 -0.050311 16.2288 4.92844 -1.37643 0 0 0
327 19 2 -0.174311 17.1374 3.85807 -2.02689 0 0 0
328 19 2 -0.174311 16.7043 3.01158 22.6527 0 0 -1
329 19 1 -0.050311 15.4855 3.2114 21.8501 0 0 -1
330 19 1 -0.091211 15.4919 2.20178 20.6492 0 0 -1
331 19 3 0.033922 16.874 4.411 0.603089 0 0 0
332 19 3 0.033922 16.2255 6.0635 0.528018 0 0 0
333 19 3 0.033922 17.8417 5.6946 -0.153204 0 0 0
334 19 3 0.046089 15.1913 4.628 -1.20328 0 0 0
335 19 3 0.046089 16.2504 5.81306 -2.0195 0 0 0
336 19 4 0.121889 18.0899 3.67337 -1.54039 0 0 0
337 19 4 0.121889 17.4437 2.29329 22.3132 0 0 -1
338 19 3 0.046089 15.387 4.26178 21.561 0 0 -1
339 19 3 0.046089 14.5988 3.0153 22.4598 0 0 -1
340 19 3 0.033922 15.6263 1.19129 21.0459 0 0 -1
341 19 3 0.033922 14.6331 2.1828 19.9719 0 0 -1
342 19 3 0.033922 16.3235 2.42503 19.9746 0 0 -1
343 20 1 -0.091211 13.5941 2.70461 8.29991 0 0 0
344 20 1 -0.050311 12.0496 2.82336 8.62302 0 0 0
345 20 2 -0.174311 11.7767 2.48581 10.0874 0 0 0
346 20 2 -0.174311 11.2417 1.31248 10.6186 0 0 0
347 20 1 -0.050311 10.7456 0.116539 9.87642 0 0 0
348 20 1 -0.091211 9.83104 20.6071 10.8748 0 -1 0
349 20 3 0.033922 14.1811 3.39996 8.9069 0 0 0
350 20 3 0.033922 13.7094 2.8897 7.22799 0 0 0
351 20 3 0.033922 13.9203 1.68786 8.53738 0 0 0
352 20 3 0.046089 11.7281 3.83902 8.37479 0 0 0
353 20 3 0.046089 11.5129 2.11665 7.98345 0 0 0
354 20 4 0.121889 12.0862 3.12093 10.9113 0 0 0
355 20 4 0.121889 11.0737 1.20498 11.6854 0 0 0
356 20 3 0.046089 11.652 20.8407 9.59572 0 -1 0
357 20 3 0.046089 10.1659 0.419308 8.99952 0 0 0
358 20 3 0.033922 9.37281 19.824 10.2638 0 -1 0
359 20 3 0.033922 10.3858 20.201 11.7257 0 -1 0
360 20 3 0.033922 9.07165 21.289 11.2684 0 -1 0
361 21 1 -0.091211 38.2682 19.4552 -1.95205 -1 -1 1
362 21 1 -0.050311 39.611 19.5556 23.204 -1 -1 0
363 21 2 -0.174311 -0.673973 20.8112 -2.07439 0 -1 1
364 21 2 -0.174311 -0.0264016 0.448115 22.7346 0 0 0
365 21 1 -0.050311 -0.0461277 0.445328 21.2242 0 0 0
366 21 1 -0.091211 -0.667743 1.80792 20.6983 0 0 0
367 21 3 0.033922 38.221 19.7523 -0.900341 -1 -1 1
368 21 3 0.033922 37.9883 18.4075 -2.09481 -1 -1 1
369 21 3 0.033922 37.5934 20.13 -2.48674 -1 -1 1
370 21 3 0.046089 -0.890995 18.6665 23.5779 0 -1 0
371 21 3 0.046089 39.5576 19.4929 22.1132 -1 -1 0
372 21 4 0.121889 -0.621306 20.9337 -0.997276 0 -1 1
373 21 4 0.121889 0.479563 1.29213 23.1924 0 0 0
374 21 3 0.046089 -0.675154 20.8903 20.8736 0 -1 0
375 21 3 0.046089 0.97887 0.314915 20.8651 0 0 0
376 21 3 0.033922 -0.718115 1.72917 19.6084 0 0 0
377 21 3 0.033922 39.3652 1.93633 21.1562 -1 0 0
378 21 3 0.033922 -0.0890711 2.71874 20.8775 0 0 0
379 22 1 -0.091211 4.63101 1.39244 19.1279 0 0 0
380 22 1 -0.050311 5.84991 0.601153 19.2402 0 0 0
381 22 2 -0.174311 6.96427 1.19069 18.4173 0 0 0
382 22 2 -0.174311 8.25582 1.14699 18.8307 0 0 0
383 22 1 -0.050311 8.65968 0.748346 20.1958 0 0 0
384 22 1 -0.091211 10.1313 0.383082 20.125 0 0 0
385 22 3 0.033922 4.69517 2.46322 19.3421 0 0 0
386 22 3 0.033922 3.85962 0.946449 19.7624 0 0 0
387 22 3 0.033922 4.30325 1.28435 18.0899 0 0 0
388 22 3 0.046089 6.20563 0.547184 20.2732 0 0 0
389 22 3 0.046089 5.64214 20.8857 18.8095 0 -1 0
390 22 4 0.121889 6.66555 1.66449 17.4876 0 0 0
391 22 4 0.121889 9.03308 1.42307 18.1253 0 0 0
392 22 3 0.046089 8.09274 21.1697 20.5931 0 -1 0
393 22 3 0.046089 8.40941 1.59555 20.8409 0 0 0
394 22 3 0.033922 10.2395 20.7507 19.5138 0 -1 0
395 22 3 0.033922 10.738 1.23278 19.7985 0 0 0
396 22 3 0.033922 10.4674 21.4695 21.1499 0 -1 0
397 23 1 -0.091211 7.5679 9.14094 -0.302667 0 0 0
398 23 1 -0.050311 8.37778 8.2067 0.620645 0 0 0
399 23 2 -0.174311 7.6178 6.96046 0.815317 0 0 0
400 23 2 -0.174311 7.72067 6.22859 2.02174 0 0 0
401 23 1 -0.050311 8.55341 6.81545 3.1665 0 0 0
402 23 1 -0.091211 8.61024 5.96463 4.47214 0 0 0
403 23 3 0.033922 8.05908 10.1062 -0.456063 0 0 0
404 23 3 0.033922 6.52489 9.17498 0.0252967 0 0 0
405 23 3 0.033922 7.57469 8.75219 -1.32511 0 0 0
406 23 3 0.046089 9.35439 8.02333 0.16326 0 0 0
407 23 3 0.046089 8.57045 8.78735 1.52744 0 0 0
408 23 4 0.121889 7.0392 6.48875 0.0274856 0 0 0
409 23 4 0.121889 7.29066 5.23562 2.1058 0 0 0
410 23 3 0.046089 8.24492 7.80654 3.51165 0 0 0
411 23 3 0.046089 9.59123 6.84494 2.82204 0 0 0
412 23 3 0.033922 7.62372 5.88418 4.93787 0 0 0
413 23 3 0.033922 8.85148 4.93185 4.20433 0 0 0
414 23 3 0.033922 9.41899 6.25226 5.15021 0 0 0
415 24 1 -0.091211 4.97921 12.4478 2.56258 0 0 0
416 24 1 -0.050311 6.24837 11.8719 2.2238 0 0 0
417 24 2 -0.174311 6.67171 12.6482 1.01943 0 0 0
418 24 2 -0.174311 7.90593 13.2634 0.824629 0 0 0
419 24 1 -0.050311 9.07221 13.1051 1.74407 0 0 0
420 24 1 -0.091211 10.3589 13.8986 1.3742 0 0 0
421 24 3 0.033922 4.99752 13.5295 2.72449 0 0 0
422 24 3 0.033922 4.64263 11.9746 3.4896 0 0 0
423 24 3 0.033922 4.18136 12.3018 1.82862 0 0 0
424 24 3 0.046089 6.90251 11.9627 3.09582 0 0 0
425 24 3 0.046089 6.07275 10.8076 2.04218 0 0 0
426 24 4 0.121889 5.8797 12.8459 0.304136 0 0 0
427 24 4 0.121889 7.90265 13.8659 -0.0781076 0 0 0
428 24 3 0.046089 9.27706 12.0321 1.79986 0 0 0
429 24 3 0.046089 8.79173 13.4528 2.7426 0 0 0
430 24 3 0.033922 10.035 14.8937 1.05569 0 0 0
431 24 3 0.033922 10.9642 14.0541 2.27194 0 0 0
432 24 3 0.033922 10.9503 13.3144 0.663187 0 0 0
433 25 1 -0.091211 5.87533 4.59173 14.1462 0 0 0
434 25 1 -0.050311 6.5631 3.79503 12.9572 0 0 0
435 25 2 -0.174311 5.73263 3.98788 11.6991 0 0 0
436 25 2 -0.174311 5.52862 3.09496 10.6881 0 0 0
437 25 1 -0.050311 6.11582 1.72084 10.533 0 0 0
438 25 1 -0.091211 6.91591 1.6116 9.31948 0 0 0
439 25 3 0.033922 5.43224 3.90877 14.8769 0 0 0
440 25 3 0.033922 5.02773 5.2262 13.8713 0 0 0
441 25 3 0.033922 6.63077 5.15971 14.697 0 0 0
442 25 3 0.046089 7.58583 4.14453 12.7885 0 0 0
443 25 3 0.046089 6.69033 2.73003 13.1721 0 0 0
444 25 4 0.121889 5.38933 5.01196 11.5925 0 0 0
445 25 4 0.121889 4.8133 3.43143 9.94439 0 0 0
446 25 3 0.046089 5.38044 0.911178 10.5179 0 0 0
447 25 3 0.046089 6.73299 1.49047 11.4063 0 0 0
448 25 3 0.033922 7.80714 2.24582 9.31238 0 0 0
449 25 3 0.033922 7.1621 0.546716 9.27503 0 0 0
450 25 3 0.033922 6.42956 1.85244 8.36973 0 0 0
451 26 1 -0.091211 2.74848 2.47635 13.6944 0 0 0
452 26 1 -0.050311 3.23628 1.01612 13.5639 0 0 0
453 26 2 -0.174311 3.64168 0.466827 14.8658 0 0 0
454 26 2 -0.174311 2.67756 21.2406 15.8011 0 -1 0
455 26 1 -0.050311 1.17964 21.1131 15.6048 0 -1 0
456 26 1 -0.091211 0.772793 19.8559 16.3327 0 -1 0
457 26 3 0.033922 1.72318 2.52417 14.0727 0 0 0
458 26 3 0.033922 2.70134 2.89569 12.6852 0 0 0
459 26 3 0.033922 3.3723 3.06169 14.3762 0 0 0
460 26 3 0.046089 2.47838 0.340445 13.1569 0 0 0
461 26 3 0.046089 4.11115 1.0941 12.9119 0 0 0
462 26 4 0.121889 4.65472 0.547026 15.2469 0 0 0
463 26 4 0.121889 3.14653 20.9483 16.7353 0 -1 0
464 26 3 0.046089 0.86757 21.1056 14.5564 0 -1 0
465 26 3 0.046089 0.759562 0.763898 16.0234 0 0 0
466 26 3 0.033922 -0.263093 19.5564 16.1488 0 -1 0
467 26 3 0.033922 1.41103 18.9974 16.1044 0 -1 0
468 26 3 0.033922 0.77347 20.0676 17.4059 0 -1 0
469 27 1 -0.091211 19.7497 13.1661 12.4366 0 0 0
470 27 1 -0.050311 20.1842 11.9993 11.5545 0 0 0
471 27 2 -0.174311 21.0239 12.5345 10.4479 0 0 0
472 27 2 -0.174311 20.627 12.4787 9.12368 0 0 0
473 27 1 -0.050311 19.3015 12.0987 8.56398 0 0 0
474 27 1 -0.091211 19.0554 12.6843 7.18691 0 0 0
475 27 3 0.033922 19.0583 12.8863 13.2368 0 0 0
476 27 3 0.033922 19.2395 13.9541 11.8751 0 0 0
477 27 3 0.033922 20.6468 13.5929 12.8943 0 0 0
478 27 3 0.046089 20.7097 11.2739 12.1823 0 0 0
479 27 3 0.046089 19.3549 11.3981 11.1704 0 0 0
480 27 4 0.121889 22.0324 12.8623 10.6791 0 0 0
481 27 4 0.121889 21.3835 12.8411 8.43496 0 0 0
482 27 3 0.046089 18.5717 12.4966 9.27508 0 0 0
483 27 3 0.046089 19.1631 11.0176 8.471 0 0 0
484 27 3 0.033922 19.5793 12.0872 6.43485 0 0 0
485 27 3 0.033922 17.9832 12.5641 7.00701 0 0 0
486 27 3 0.033922 19.3782 13.7216 7.05914 0 0 0
487 28 1 -0.091211 6.23447 3.74818 -0.948227 0 0 0
488 28 1 -0.050311 6.44677 2.54837 -1.80445 0 0 0
489 28 2 -0.174311 7.76462 1.9434 -1.43364 0 0 0
490 28 2 -0.174311 8.12194 0.580148 -1.5591 0 0 0
491 28 1 -0.050311 7.24545 20.6906 -2.06719 0 -1 0
492 28 1 -0.091211 7.77212 19.3656 -1.45805 0 -1 0
493 28 3 0.033922 5.25058 4.22065 -1.02117 0 0 0
494 28 3 0.033922 7.02565 4.48927 -1.09453 0 0 0
495 28 3 0.033922 6.22543 3.31407 0.0557831 0 0 0
496 28 3 0.046089 5.64497 1.8293 -1.61301 0 0 0
497 28 3 0.046089 6.45388 2.92179 22.8887 0 0 -1
498 28 4 0.121889 8.41199 2.6607 -0.939311 0 0 0
499 28 4 0.121889 9.15087 21.5602 -1.36896 0 -1 0
500 28 3 0.046089 7.14509 20.6832 22.5649 0 -1 -1
501 28 3 0.046089 6.19212 20.741 -1.77639 0 -1 0
502 28 3 0.033922 7.03234 18.5637 -1.53754 0 -1 0
503 28 3 0.033922 8.72137 19.1332 -1.94949 0 -1 0
504 28 3 0.033922 7.96252 19.4389 -0.383365 0 -1 0
505 29 1 -0.091211 11.7507 8.21003 13.072 0 0 0
506 29 1 -0.050311 10.9823 7.26607 12.1423 0 0 0
507 29 2 -0.174311 9.49864 7.30002 12.2388 0 0 0
508 29 2 -0.174311 8.81753 6.29481 11.6591 0 0 0
509 29 1 -0.050311 9.34128 5.21998 10.6693 0 0 0
510 29 1 -0.091211 8.53228 5.19061 9.37353 0 0 0
511 29 3 0.033922 11.7503 7.97502 14.1403 0 0 0
512 29 3 0.033922 11.3694 9.22576 12.9322 0 0 0
513 29 3 0.033922 12.8122 8.19966 12.8083 0 0 0
514 29 3 0.046089 11.2545 7.44702 11.0985 0 0 0
515 29 3 0.046089 11.2769 6.24872 12.4157 0 0 0
516 29 4 0.121889 8.99113 8.07838 12.7997 0 0 0
517 29 4 0.121889 7.74395 6.26559 11.8159 0 0 0
518 29 3 0.046089 9.29259 4.24558 11.164 0 0 0
519 29 3 0.046089 10.3881 5.37869 10.3945 0 0 0
520 29 3 0.033922 8.55797 6.18417 8.91665 0 0 0
521 29 3 0.033922 8.91568 4.47915 8.63637 0 0 0
522 29 3 0.033922 7.50758 4.88406 9.60287 0 0 0
523 30 1 -0.091211 16.1547 13.7086 17.6119 0 0 0
524 30 1 -0.050311 16.4586 12.9362 18.9487 0 0 0
525 30 2 -0.174311 16.4481 13.7933 20.2148 0 0 0
526 30 2 -0.174311 16.0595 13.3785 21.4898 0 0 0
527 30 1 -0.050311 15.7267 12.0058 21.8441 0 0 0
528 30 1 -0.091211 14.3353 11.6443 21.4055 0 0 0
529 30 3 0.033922 16.265 13.0896 16.7168 0 0 0
530 30 3 0.033922 16.9098 14.4891 17.4806 0 0 0
531 30 3 0.033922 15.17 14.1849 17.6028 0 0 0
532 30 3 0.046089 15.7594 12.0987 19.0277 0 0 0
533 30 3 0.046089 17.4812 12.5519 18.8908 0 0 0
534 30 4 0.121889 16.8727 14.7896 20.1429 0 0 0
535 30 4 0.121889 16.3145 14.1322 22.2279 0 0 0
536 30 3 0.046089 15.8125 11.9222 22.9314 0 0 0
537 30 3 0.046089 16.472 11.3209 21.4294 0 0 0
538 30 3 0.033922 14.035 12.0832 20.4496 0 0 0
539 30 3 0.033922 14.437 10.5626 21.2782 0 0 0
540 30 3 0.033922 13.6162 11.944 22.1734 0 0 0
541 31 1 -0.091211 19.0761 5.05659 17.3273 0 1 0
542 31 1 -0.050311 19.2027 3.56786 17.1358 0 1 0
543 31 2 -0.174311 19.504 3.33676 15.722 0 1 0
544 31 2 -0.174311 19.3609 2.06012 15.147 0 1 0
545 31 1 -0.050311 18.8536 0.850641 15.8998 0 1 0
546 31 1 -0.091211 18.7072 20.8663 15.0778 0 0 0
547 31 3 0.033922 18.3561 5.54251 16.6624 0 1 0
548 31 3 0.033922 20.0593 5.52565 17.2283 0 1 0
549 31 3 0.033922 18.6872 5.31319 18.317 0 1 0
550 31 3 0.046089 19.9585 3.1173 17.7857 0 1 0
551 31 3 0.046089 18.2384 3.13885 17.4235 0 1 0
552 31 4 0.121889 19.7986 4.2119 15.1517 0 1 0
553 31 4 0.121889 19.5456 1.98548 14.0801 0 1 0
554 31 3 0.046089 17.915 1.05737 16.422 0 1 0
555 31 3 0.046089 19.5398 0.5738 16.7054 0 1 0
556 31 3 0.033922 17.9275 20.8823 14.3107 0 0 0
557 31 3 0.033922 19.6846 20.6559 14.6339 0 0 0
558 31 3 0.033922 18.4878 20.1238 15.8506 0 0 0
559 32 1 -0.091211 14.4046 19.6873 5.81441 0 0 0
560 32 1 -0.050311 15.7086 19.3778 6.52769 0 0 0
561 32 2 -0.174311 16.8914 20.1531 5.98122 0 0 0
562 32 2 -0.174311 17.564 21.1978 6.50789 0 0 0
563 32 1 -0.050311 17.133 0.585034 7.8303 0 1 0
564 32 1 -0.091211 18.1981 1.67252 8.26237 0 1 0
565 32 3 0.033922 14.5346 19.7493 4.73004 0 0 0
566 32 3 0.033922 14.0633 20.6901 6.08711 0 0 0
567 32 3 0.033922 13.6394 18.9745 6.13512 0 0 0
568 32 3 0.046089 15.5419 19.5383 7.59681 0 0 0
569 32 3 0.046089 15.9985 18.3274 6.43206 0 0 0
570 32 4 0.121889 17.3131 19.7436 5.06881 0 0 0
571 32 4 0.121889 18.3714 0.388846 5.94656 0 1 0
572 32 3 0.046089 17.0075 21.0844 8.59808 0 0 0
573 32 3 0.046089 16.1464 1.04428 7.71894 0 1 0
574 32 3 0.033922 17.8602 2.04955 9.23204 0 1 0
575 32 3 0.033922 19.2028 1.26596 8.41017 0 1 0
576 32 3 0.033922 18.2738 2.55064 7.6145 0 1 0
577 33 1 -0.091211 10.4267 13.655 5.65644 0 0 0
578 33 1 -0.050311 11.7955 14.2592 5.86972 0 0 0
579 33 2 -0.174311 11.6252 15.6958 5.89455 0 0 0
580 33 2 -0.174311 11.5822 16.5364 6.93139 0 0 0
581 33 1 -0.050311 11.6536 16.2293 8.35462 0 0 0
582 33 1 -0.091211 11.7006 17.5077 9.16297 0 0 0
583 33 3 0.033922 10.1027 13.7997 4.62173 0 0 0
584 33 3 0.033922 9.62066 14.1118 6.23797 0 0 0
585 33 3 0.033922 10.3554 12.5751 5.81538 0 0 0
586 33 3 0.046089 12.1745 13.9543 6.84949 0 0 0
587 33 3 0.046089 12.5115 13.9728 5.09388 0 0 0
588 33 4 0.121889 11.3737 16.1486 4.94078 0 0 0
589 33 4 0.121889 11.4278 17.5449 6.56122 0 0 0
590 33 3 0.046089 12.5667 15.679 8.59929 0 0 0
591 33 3 0.046089 10.8285 15.5776 8.65643 0 0 0
592 33 3 0.033922 10.9018 18.2055 8.89553 0 0 0
593 33 3 0.033922 11.6045 17.2875 10.2301 0 0 0
594 33 3 0.033922 12.6673 18.0179 9.11965 0 0 0
595 34 1 -0.091211 20.9209 18.0984 13.2249 0 0 0
596 34 1 -0.050311 21.1979 16.7535 13.9046 0 0 0
597 34 2 -0.174311 21.586 16.9482 15.3468 0 0 0
598 34 2 -0.174311 20.6985 16.901 16.3976 0 0 0
599 34 1 -0.050311 19.2388 16.8215 16.0228 0 0 0
600 34 1 -0.091211 18.551 16.839 17.459 0 0 0
601 34 3 0.033922 20.0097 18.5545 13.6228 0 0 0
602 34 3 0.033922 20.8113 17.7966 12.1792 0 0 0
603 34 3 0.033922 21.7548 18.791 13.3714 0 0 0
604 34 3 0.046089 20.2458 16.2203 13.8288 0 0 0
605 34 3 0.046089 21.8304 16.0912 13.3064 0 0 0
606 34 4 0.121889 22.6357 17.1426 15.5428 0 0 0
607 34 4 0.121889 21.0325 16.9404 17.4295 0 0 0
608 34 3 0.046089 18.9295 15.9319 15.4666 0 0 0
609 34 3 0.046089 19.0269 17.7336 15.4574 0 0 0
610 34 3 0.033922 18.8016 17.7565 17.9994 0 0 0
611 34 3 0.033922 17.4712 16.7097 17.3411 0 0 0
612 34 3 0.033922 18.981 16.0431 18.074 0 0 0
613 35 1 -0.091211 -0.266549 11.6296 17.2718 0 0 0
614 35 1 -0.050311 0.88174 12.1473 18.1 0 0 0
615 35 2 -0.174311 2.1892 11.6792 17.4485 0 0 0
616 35 2 -0.174311 3.00278 10.6668 17.8486 0 0 0
617 35 1 -0.050311 2.73504 9.7641 19.0517 0 0 0