ITEM: TIMESTEP
49900
ITEM: NUMBER OF ATOMS
1800
ITEM: BOX BOUNDS pp pp pp
-2.9845231878733998e+00 4.1792538687872522e+01
-1.6129133375160638e+00 2.3221568837516465e+01
6.5868177725991828e-01 2.0595051722739917e+01
ITEM: ATOMS id mol type q x y z ix iy iz
1 1 1 -0.091211 0.932937 17.6723 12.4795 0 -1 0
2 1 1 -0.050311 2.18594 17.9914 11.644 0 -1 0
3 1 2 -0.174311 2.87398 19.2143 12.1902 0 -1 0
4 1 2 -0.174311 3.88659 19.8268 11.5299 0 -1 0
5 1 1 -0.050311 4.4201 19.3607 10.193 0 -1 0
6 1 1 -0.091211 3.76794 20.0813 9.07788 0 -1 0
7 1 3 0.033922 1.20986 17.0589 13.3418 0 -1 0
8 1 3 0.033922 0.282257 17.0128 11.8978 0 -1 0
9 1 3 0.033922 0.381256 18.5746 12.7588 0 -1 0
10 1 3 0.046089 2.83482 17.1131 11.7085 0 -1 0
11 1 3 0.046089 2.00252 18.0745 10.5688 0 -1 0
12 1 4 0.121889 2.62086 19.576 13.1817 0 -1 0
13 1 4 0.121889 4.34353 20.6692 12.0393 0 -1 0
14 1 3 0.046089 4.3361 18.2735 10.1061 0 -1 0
15 1 3 0.046089 5.49961 19.5242 10.2612 0 -1 0
16 1 3 0.033922 4.24867 21.0635 9.10372 0 -1 0
17 1 3 0.033922 3.8158 19.5823 8.10561 0 -1 0
18 1 3 0.033922 2.68617 20.1431 9.22847 0 -1 0
19 2 1 -0.091211 13.1842 2.92337 15.7615 0 0 0
20 2 1 -0.050311 12.9339 3.56053 14.3573 0 0 0
21 2 2 -0.174311 11.913 2.80636 13.5962 0 0 0
22 2 2 -0.174311 12.2394 1.71214 12.8699 0 0 0
23 2 1 -0.050311 13.4915 0.964527 12.5931 0 0 0
24 2 1 -0.091211 13.231 -0.528655 12.689 0 0 0
25 2 3 0.033922 13.6886 1.95518 15.6921 0 0 0
26 2 3 0.033922 12.2468 2.63976 16.2487 0 0 0
27 2 3 0.033922 13.7842 3.52842 16.4474 0 0 0
28 2 3 0.046089 12.6004 4.60195 14.386 0 0 0
29 2 3 0.046089 13.8783 3.59648 13.8064 0 0 0
30 2 4 0.121889 10.8646 3.0138 13.7856 0 0 0
31 2 4 0.121889 11.3474 1.25012 12.4588 0 0 0
32 2 3 0.046089 14.2424 1.27035 13.3275 0 0 0
33 2 3 0.046089 13.9169 1.26147 11.6301 0 0 0
34 2 3 0.033922 14.1298 -1.12314 12.501 0 0 0
35 2 3 0.033922 12.8381 -0.880292 13.6474 0 0 0
36 2 3 0.033922 12.5223 -0.857291 11.9233 0 0 0
37 3 1 -0.091211 3.92531 4.15396 9.53604 0 0 0
38 3 1 -0.050311 3.27799 3.82072 10.8499 0 0 0
39 3 2 -0.174311 3.38356 5.10645 11.6712 0 0 0
40 3 2 -0.174311 3.9056 5.19944 12.9306 0 0 0
41 3 1 -0.050311 4.48078 4.03246 13.6241 0 0 0
42 3 1 -0.091211 4.73713 4.41994 15.1108 0 0 0
43 3 3 0.033922 3.37134 4.97903 9.07891 0 0 0
44 3 3 0.033922 3.9305 3.28277 8.87456 0 0 0
45 3 3 0.033922 4.99677 4.30446 9.69744 0 0 0
46 3 3 0.046089 2.2394 3.48357 10.7838 0 0 0
47 3 3 0.046089 3.85792 3.0274 11.3305 0 0 0
48 3 4 0.121889 3.03987 6.03105 11.2185 0 0 0
49 3 4 0.121889 3.78475 6.13999 13.4586 0 0 0
50 3 3 0.046089 5.42005 3.76966 13.1288 0 0 0
51 3 3 0.046089 3.79193 3.18299 13.6013 0 0 0
52 3 3 0.033922 5.43995 3.64946 15.441 0 0 0
53 3 3 0.033922 5.11913 5.43132 15.2774 0 0 0
54 3 3 0.033922 3.75995 4.39116 15.6016 0 0 0
55 4 1 -0.091211 -0.932951 2.78757 8.9482 0 0 0
56 4 1 -0.050311 -0.68255 1.46194 8.24355 0 0 0
57 4 2 -0.174311 0.774796 1.31964 7.93675 0 0 0
58 4 2 -0.174311 1.28327 0.231966 7.22497 0 0 0
59 4 1 -0.050311 0.359183 -0.882765 6.74823 0 0 0
60 4 1 -0.091211 1.03826 22.8889 6.08272 0 -1 0
61 4 3 0.033922 -2.00853 2.9225 9.09531 0 0 0
62 4 3 0.033922 -0.584723 3.55375 8.24943 0 0 0
63 4 3 0.033922 -0.292652 2.92772 9.82397 0 0 0
64 4 3 0.046089 -0.872251 0.564735 8.83986 0 0 0
65 4 3 0.046089 -1.22456 1.32973 7.30263 0 0 0
66 4 4 0.121889 1.55619 2.01292 8.23141 0 0 0
67 4 4 0.121889 2.32601 0.106528 6.95101 0 0 0
68 4 3 0.046089 -0.243441 -0.398272 5.97446 0 0 0
69 4 3 0.046089 -0.041264 -1.27421 7.68789 0 0 0
70 4 3 0.033922 1.73616 22.408 6.77434 0 -1 0
71 4 3 0.033922 0.33092 22.0928 5.83247 0 -1 0
72 4 3 0.033922 1.52307 23.2454 5.16924 0 -1 0
73 5 1 -0.091211 -1.80041 6.80763 2.9955 0 0 0
74 5 1 -0.050311 -2.19467 5.54574 3.8439 0 0 0
75 5 2 -0.174311 41.1042 5.6689 4.16986 -1 0 0
76 5 2 -0.174311 40.4616 5.99945 5.30966 -1 0 0
77 5 1 -0.050311 41.0923 6.22577 6.69885 -1 0 0
78 5 1 -0.091211 40.3521 5.46247 7.77861 -1 0 0
79 5 3 0.033922 -0.78447 6.73765 2.59591 0 0 0
80 5 3 0.033922 -1.79479 7.69642 3.63313 0 0 0
81 5 3 0.033922 -2.39778 6.9512 2.09044 0 0 0
82 5 3 0.046089 -2.11237 4.6429 3.23179 0 0 0
83 5 3 0.046089 -1.57975 5.46897 4.74532 0 0 0
84 5 4 0.121889 40.4764 5.43707 3.3154 -1 0 0
85 5 4 0.121889 39.3874 6.14593 5.25784 -1 0 0
86 5 3 0.046089 41.0714 7.3053 6.87416 -1 0 0
87 5 3 0.046089 -2.64755 5.88211 6.64668 0 0 0
88 5 3 0.033922 40.8641 5.53652 8.74242 -1 0 0
89 5 3 0.033922 39.3204 5.82502 7.8065 -1 0 0
90 5 3 0.033922 40.2655 4.39181 7.57185 -1 0 0
91 6 1 -0.091211 9.43593 3.52568 18.9764 0 0 0
92 6 1 -0.050311 9.37846 4.10275 17.6014 0 0 0
93 6 2 -0.174311 10.2674 5.30775 17.5529 0 0 0
94 6 2 -0.174311 9.9072 6.58655 17.0308 0 0 0
95 6 1 -0.050311 8.56694 6.86155 16.4122 0 0 0
96 6 1 -0.091211 8.4506 6.43795 14.9255 0 0 0
97 6 3 0.033922 9.11449 4.21136 19.7658 0 0 0
98 6 3 0.033922 10.4092 3.19145 19.3475 0 0 0
99 6 3 0.033922 8.83246 2.6133 18.9798 0 0 0
100 6 3 0.046089 9.71964 3.40609 16.8302 0 0 0
101 6 3 0.046089 8.31681 4.22623 17.3683 0 0 0
102 6 4 0.121889 11.2454 5.10275 17.9768 0 0 0
103 6 4 0.121889 10.612 7.40459 16.9208 0 0 0
104 6 3 0.046089 8.38931 7.93982 16.4607 0 0 0
105 6 3 0.046089 7.7952 6.32063 16.9676 0 0 0
106 6 3 0.033922 7.40691 6.26276 14.6485 0 0 0
107 6 3 0.033922 8.94464 7.22366 14.3466 0 0 0
108 6 3 0.033922 9.0665 5.54174 14.8068 0 0 0
109 7 1 -0.091211 40.6009 19.3952 1.88796 -1 0 0
110 7 1 -0.050311 39.1337 19.2072 1.5313 -1 0 0
111 7 2 -0.174311 38.9111 18.1426 20.3644 -1 0 -1
112 7 2 -0.174311 37.891 18.1891 19.4885 -1 0 -1
113 7 1 -0.050311 36.8229 19.1574 19.4729 -1 0 -1
114 7 1 -0.091211 35.5301 18.7042 18.7705 -1 0 -1
115 7 3 0.033922 41.1919 19.3676 0.96783 -1 0 0
116 7 3 0.033922 40.8623 18.5468 2.52704 -1 0 0
117 7 3 0.033922 40.8217 20.3702 2.3321 -1 0 0
118 7 3 0.046089 38.6953 18.7855 2.44049 -1 0 0
119 7 3 0.046089 38.6484 20.1148 1.16077 -1 0 0
120 7 4 0.121889 39.6747 17.4203 20.0939 -1 0 -1
121 7 4 0.121889 37.7987 17.4708 18.6801 -1 0 -1
122 7 3 0.046089 37.1501 20.0495 18.9309 -1 0 -1
123 7 3 0.046089 36.5203 19.478 20.474 -1 0 -1
124 7 3 0.033922 35.5878 19.0085 17.7214 -1 0 -1
125 7 3 0.033922 35.3153 17.644 18.9331 -1 0 -1
126 7 3 0.033922 34.6653 19.2335 19.1811 -1 0 -1
127 8 1 -0.091211 -1.28563 7.58979 19.5108 0 0 0
128 8 1 -0.050311 0.278996 7.69694 19.5915 0 0 0
129 8 2 -0.174311 0.867832 8.68228 18.5685 0 0 0
130 8 2 -0.174311 1.428 8.25938 17.3567 0 0 0
131 8 1 -0.050311 1.55114 6.85769 16.8981 0 0 0
132 8 1 -0.091211 1.80871 6.84785 15.3694 0 0 0
133 8 3 0.033922 -1.48939 6.71577 20.1362 0 0 0
134 8 3 0.033922 -1.64458 7.41768 18.492 0 0 0
135 8 3 0.033922 -1.72178 8.51829 19.8906 0 0 0
136 8 3 0.046089 0.695112 7.82611 20.5948 0 0 0
137 8 3 0.046089 0.622386 6.7098 19.2687 0 0 0
138 8 4 0.121889 0.774704 9.74884 18.7466 0 0 0
139 8 4 0.121889 1.69128 9.06613 16.6801 0 0 0
140 8 3 0.046089 0.640991 6.28547 17.1003 0 0 0
141 8 3 0.046089 2.36718 6.38353 17.4512 0 0 0
142 8 3 0.033922 1.98731 5.83712 14.9912 0 0 0
143 8 3 0.033922 0.977997 7.27953 14.8036 0 0 0
144 8 3 0.033922 2.7127 7.44392 15.2139 0 0 0
145 9 1 -0.091211 38.4068 15.2964 5.25562 -1 0 1
146 9 1 -0.050311 38.6009 14.8618 6.60255 -1 0 1
147 9 2 -0.174311 38.6069 13.349 6.64317 -1 0 1
148 9 2 -0.174311 38.4873 12.647 7.80038 -1 0 1
149 9 1 -0.050311 38.4178 13.2858 9.16458 -1 0 1
150 9 1 -0.091211 39.6511 12.9886 10.0859 -1 0 1
151 9 3 0.033922 39.1911 14.8507 4.6369 -1 0 1
152 9 3 0.033922 38.5334 16.3829 5.264 -1 0 1
153 9 3 0.033922 37.4007 15.0159 4.93037 -1 0 1
154 9 3 0.046089 39.6113 15.1646 6.89255 -1 0 1
155 9 3 0.046089 37.9803 15.3511 7.35881 -1 0 1
156 9 4 0.121889 38.554 12.8814 5.66515 -1 0 1
157 9 4 0.121889 38.505 11.5624 7.83603 -1 0 1
158 9 3 0.046089 37.4871 12.9607 9.63859 -1 0 1
159 9 3 0.046089 38.3143 14.3659 9.02569 -1 0 1
160 9 3 0.033922 40.5535 13.4695 9.69741 -1 0 1
161 9 3 0.033922 39.5752 13.3294 11.1226 -1 0 1
162 9 3 0.033922 39.8765 11.9194 10.035 -1 0 1
163 10 1 -0.091211 10.9049 9.6849 8.86762 0 0 1
164 10 1 -0.050311 9.90505 8.88282 8.1203 0 0 1
165 10 2 -0.174311 8.52573 9.60196 8.03752 0 0 1
166 10 2 -0.174311 7.37596 9.13907 7.41365 0 0 1
167 10 1 -0.050311 7.07923 7.90012 6.61872 0 0 1
168 10 1 -0.091211 5.7517 7.22634 7.0907 0 0 1
169 10 3 0.033922 10.7433 10.7419 8.63717 0 0 1
170 10 3 0.033922 11.9705 9.50096 8.70238 0 0 1
171 10 3 0.033922 10.6309 9.48593 9.90775 0 0 1
172 10 3 0.046089 10.3075 8.91663 7.10371 0 0 1
173 10 3 0.046089 9.84623 7.83339 8.42328 0 0 1
174 10 4 0.121889 8.36173 10.3349 8.821 0 0 1
175 10 4 0.121889 6.55631 9.80439 7.66579 0 0 1
176 10 3 0.046089 7.952 7.25326 6.74724 0 0 1
177 10 3 0.046089 6.89902 8.23247 5.59226 0 0 1
178 10 3 0.033922 5.35915 6.63191 6.26056 0 0 1
179 10 3 0.033922 6.03496 6.66284 7.98444 0 0 1
180 10 3 0.033922 5.0158 8.00479 7.31231 0 0 1
181 11 1 -0.091211 38.6361 16.1097 14.8782 -1 0 0
182 11 1 -0.050311 39.7274 15.1686 14.338 -1 0 0
183 11 2 -0.174311 41.0038 15.4703 14.9591 -1 0 0
184 11 2 -0.174311 -2.53797 15.1309 14.4178 0 0 0
185 11 1 -0.050311 -2.23126 14.2797 13.2527 0 0 0
186 11 1 -0.091211 -1.57404 15.1081 12.1707 0 0 0
187 11 3 0.033922 38.5508 16.0056 15.9638 -1 0 0
188 11 3 0.033922 37.6479 15.917 14.4504 -1 0 0
189 11 3 0.033922 38.8591 17.1295 14.5512 -1 0 0
190 11 3 0.046089 39.4626 14.1491 14.6332 -1 0 0
191 11 3 0.046089 39.7663 15.0476 13.2516 -1 0 0
192 11 4 0.121889 41.0012 16.0652 15.8668 -1 0 0
193 11 4 0.121889 -1.66219 15.503 14.9399 0 0 0
194 11 3 0.046089 41.7435 13.6032 12.944 -1 0 0
195 11 3 0.046089 -1.46188 13.5845 13.6011 0 0 0
196 11 3 0.033922 -0.482447 15.1508 12.2283 0 0 0
197 11 3 0.033922 -1.77955 14.6495 11.199 0 0 0
198 11 3 0.033922 -1.90915 16.1493 12.1783 0 0 0
199 12 1 -0.091211 0.384967 13.1414 6.97636 0 0 0
200 12 1 -0.050311 1.71205 13.0207 7.69266 0 0 0
201 12 2 -0.174311 1.60555 13.7878 9.01193 0 0 0
202 12 2 -0.174311 2.40892 14.7759 9.45647 0 0 0
203 12 1 -0.050311 3.57508 15.475 8.73939 0 0 0
204 12 1 -0.091211 4.92845 15.0985 9.25055 0 0 0
205 12 3 0.033922 -0.0453051 14.1471 6.97796 0 0 0
206 12 3 0.033922 -0.431573 12.622 7.48637 0 0 0
207 12 3 0.033922 0.481784 12.7346 5.96556 0 0 0
208 12 3 0.046089 2.04517 11.9855 7.81034 0 0 0
209 12 3 0.046089 2.50862 13.462 7.08652 0 0 0
210 12 4 0.121889 0.691938 13.5552 9.54975 0 0 0
211 12 4 0.121889 2.30008 15.3175 10.3907 0 0 0
212 12 3 0.046089 3.4017 16.5501 8.84262 0 0 0
213 12 3 0.046089 3.57517 15.2883 7.66158 0 0 0
214 12 3 0.033922 5.05353 14.0166 9.14822 0 0 0
215 12 3 0.033922 5.67789 15.5981 8.62977 0 0 0
216 12 3 0.033922 4.96248 15.324 10.3204 0 0 0
217 13 1 -0.091211 1.89246 11.5993 11.6191 0 0 0
218 13 1 -0.050311 1.88583 12.5597 12.842 0 0 0
219 13 2 -0.174311 1.33019 12.0435 14.1402 0 0 0
220 13 2 -0.174311 1.63489 12.6504 15.3072 0 0 0
221 13 1 -0.050311 2.29905 14.0003 15.3888 0 0 0
222 13 1 -0.091211 2.19284 14.4957 16.8192 0 0 0
223 13 3 0.033922 0.866012 11.3604 11.3258 0 0 0
224 13 3 0.033922 2.31403 10.6482 11.9574 0 0 0
225 13 3 0.033922 2.5144 12.1188 10.8844 0 0 0
226 13 3 0.046089 2.862 12.9988 13.0679 0 0 0
227 13 3 0.046089 1.29045 13.4429 12.5928 0 0 0
228 13 4 0.121889 0.84708 11.0727 14.1865 0 0 0
229 13 4 0.121889 1.27043 12.1304 16.1874 0 0 0
230 13 3 0.046089 1.8605 14.7141 14.6855 0 0 0
231 13 3 0.046089 3.35966 13.8606 15.1602 0 0 0
232 13 3 0.033922 1.20647 14.8892 17.0816 0 0 0
233 13 3 0.033922 2.38323 13.6628 17.5022 0 0 0
234 13 3 0.033922 2.94614 15.2567 17.0427 0 0 0
235 14 1 -0.091211 14.5941 8.74826 7.92427 0 0 0
236 14 1 -0.050311 15.4868 9.42016 8.88581 0 0 0
237 14 2 -0.174311 14.7463 10.0466 10.0046 0 0 0
238 14 2 -0.174311 14.3952 9.43454 11.2028 0 0 0
239 14 1 -0.050311 14.322 7.92885 11.305 0 0 0
240 14 1 -0.091211 14.8794 7.44148 12.6754 0 0 0
241 14 3 0.033922 14.1583 9.52529 7.28948 0 0 0
242 14 3 0.033922 13.7283 8.26879 8.3904 0 0 0
243 14 3 0.033922 15.1379 7.98233 7.3637 0 0 0
244 14 3 0.046089 16.1511 8.65391 9.29591 0 0 0
245 14 3 0.046089 16.0968 10.1782 8.38591 0 0 0
246 14 4 0.121889 14.4845 11.0984 9.94903 0 0 0
247 14 4 0.121889 13.7839 10.0003 11.8987 0 0 0
248 14 3 0.046089 14.8749 7.42916 10.5043 0 0 0
249 14 3 0.046089 13.2915 7.56266 11.3311 0 0 0
250 14 3 0.033922 14.5412 6.43151 12.9248 0 0 0
251 14 3 0.033922 15.9716 7.39323 12.7125 0 0 0
252 14 3 0.033922 14.561 8.02165 13.5463 0 0 0
253 15 1 -0.091211 -0.175574 17.8303 16.0538 0 0 0
254 15 1 -0.050311 0.67223 18.154 17.2695 0 0 0
255 15 2 -0.174311 2.06366 18.2323 16.867 0 0 0
256 15 2 -0.174311 3.19391 18.555 17.6151 0 0 0
257 15 1 -0.050311 3.16547 18.7504 19.1159 0 0 0
258 15 1 -0.091211 3.60104 17.5062 19.9278 0 0 0
259 15 3 0.033922 -0.399406 18.7375 15.4851 0 0 0
260 15 3 0.033922 -1.13159 17.4523 16.4278 0 0 0
261 15 3 0.033922 0.192897 17.0296 15.406 0 0 0
262 15 3 0.046089 0.34919 19.1338 17.6332 0 0 0
263 15 3 0.046089 0.674692 17.4154 18.0764 0 0 0
264 15 4 0.121889 2.23244 17.9106 15.8443 0 0 0
265 15 4 0.121889 4.16088 18.6363 17.1289 0 0 0
266 15 3 0.046089 2.20557 19.1191 19.4892 0 0 0
267 15 3 0.046089 3.82728 19.5764 19.3922 0 0 0
268 15 3 0.033922 4.54396 17.0617 19.596 0 0 0
269 15 3 0.033922 3.61741 17.7067 1.06665 0 0 1
270 15 3 0.033922 2.79731 16.78 19.775 0 0 0
271 16 1 -0.091211 8.53904 3.86788 10.1473 0 1 0
272 16 1 -0.050311 7.42291 3.20392 10.9327 0 1 0
273 16 2 -0.174311 6.89893 2.07608 10.1451 0 1 0
274 16 2 -0.174311 6.42026 0.953292 10.7392 0 1 0
275 16 1 -0.050311 6.07614 0.769505 12.2211 0 1 0
276 16 1 -0.091211 5.43477 -0.58831 12.4021 0 1 0
277 16 3 0.033922 9.37993 3.16843 10.1652 0 1 0
278 16 3 0.033922 8.86368 4.76147 10.6883 0 1 0
279 16 3 0.033922 8.21109 3.98029 9.10986 0 1 0
280 16 3 0.046089 7.90326 2.83973 11.8455 0 1 0
281 16 3 0.046089 6.61178 3.90859 11.1381 0 1 0
282 16 4 0.121889 6.96885 1.96013 9.06829 0 1 0
283 16 4 0.121889 6.07178 0.153354 10.0937 0 1 0
284 16 3 0.046089 5.34637 1.47058 12.6365 0 1 0
285 16 3 0.046089 6.97776 0.983445 12.8025 0 1 0
286 16 3 0.033922 5.11122 -0.785235 13.4283 0 1 0
287 16 3 0.033922 4.49749 -0.783436 11.8729 0 1 0
288 16 3 0.033922 6.17073 -1.3499 12.1283 0 1 0
289 17 1 -0.091211 7.05193 15.1785 19.0491 0 0 0
290 17 1 -0.050311 6.41585 14.5969 17.745 0 0 0
291 17 2 -0.174311 7.49879 14.112 16.8111 0 0 0
292 17 2 -0.174311 7.39483 13.9679 15.4508 0 0 0
293 17 1 -0.050311 6.10302 14.2399 14.6567 0 0 0
294 17 1 -0.091211 6.48775 14.2729 13.1883 0 0 0
295 17 3 0.033922 7.69295 14.4555 19.562 0 0 0
296 17 3 0.033922 6.28007 15.6055 19.696 0 0 0
297 17 3 0.033922 7.65903 16.0333 18.737 0 0 0
298 17 3 0.046089 5.73015 13.762 17.9163 0 0 0
299 17 3 0.046089 5.85544 15.3556 17.1909 0 0 0
300 17 4 0.121889 8.44295 13.8509 17.2785 0 0 0
301 17 4 0.121889 8.28024 13.7226 14.8729 0 0 0
302 17 3 0.046089 5.78234 15.207 15.0548 0 0 0
303 17 3 0.046089 5.30951 13.5055 14.8233 0 0 0
304 17 3 0.033922 5.68559 14.7586 12.625 0 0 0
305 17 3 0.033922 7.41161 14.8305 13.0086 0 0 0
306 17 3 0.033922 6.50234 13.1975 12.9887 0 0 0
307 18 1 -0.091211 37.562 9.48449 10.2222 -1 0 1
308 18 1 -0.050311 38.8601 8.69049 10.5496 -1 0 1
309 18 2 -0.174311 39.1193 8.71949 12.0062 -1 0 1
310 18 2 -0.174311 40.2746 9.18123 12.63 -1 0 1
311 18 1 -0.050311 41.4958 9.88046 12.0088 -1 0 1
312 18 1 -0.091211 -2.22035 10.2066 12.9689 0 0 1
313 18 3 0.033922 37.0608 9.16 9.30566 -1 0 1
314 18 3 0.033922 37.8873 10.5178 10.0706 -1 0 1
315 18 3 0.033922 36.811 9.30905 10.998 -1 0 1
316 18 3 0.046089 38.7414 7.65042 10.2323 -1 0 1
317 18 3 0.046089 39.6897 9.13199 9.98968 -1 0 1
318 18 4 0.121889 38.2784 8.33051 12.5715 -1 0 1
319 18 4 0.121889 40.5097 9.04726 13.6811 -1 0 1
320 18 3 0.046089 41.0859 10.787 11.5541 -1 0 1
321 18 3 0.046089 41.909 9.29898 11.1795 -1 0 1
322 18 3 0.033922 -2.57545 11.0777 13.5272 0 0 1
323 18 3 0.033922 -2.02063 9.40274 13.6834 0 0 1
324 18 3 0.033922 -1.29696 10.5071 12.4652 0 0 1
325 19 1 -0.091211 7.54391 12.7566 6.67234 0 0 0
326 19 1 -0.050311 9.03433 12.9101 6.50669 0 0 0
327 19 2 -0.174311 9.4604 13.1909 5.05227 0 0 0
328 19 2 -0.174311 10.2355 12.4758 4.18652 0 0 0
329 19 1 -0.050311 10.5592 10.9871 4.38505 0 0 0
330 19 1 -0.091211 11.8751 10.8024 5.0558 0 0 0
331 19 3 0.033922 7.02236 13.6605 6.34456 0 0 0
332 19 3 0.033922 7.20559 12.5124 7.68351 0 0 0
333 19 3 0.033922 7.2606 11.8937 6.06268 0 0 0
334 19 3 0.046089 9.3789 13.6988 7.18173 0 0 0
335 19 3 0.046089 9.46447 11.9495 6.80485 0 0 0
336 19 4 0.121889 9.04158 14.1207 4.68054 0 0 0
337 19 4 0.121889 10.4076 12.9227 3.21259 0 0 0
338 19 3 0.046089 10.5664 10.5026 3.40438 0 0 0
339 19 3 0.046089 9.8086 10.431 4.95426 0 0 0
340 19 3 0.033922 11.9777 11.1205 6.09732 0 0 0
341 19 3 0.033922 12.118 9.73937 4.96869 0 0 0
342 19 3 0.033922 12.616 11.3671 4.4824 0 0 0
343 20 1 -0.091211 16.5548 18.8431 14.3567 0 -1 0
344 20 1 -0.050311 15.9091 20.0382 13.6942 0 -1 0
345 20 2 -0.174311 14.4932 20.1677 14.2141 0 -1 0
346 20 2 -0.174311 13.397 19.5219 13.6288 0 -1 0
347 20 1 -0.050311 13.4978 18.5464 12.5298 0 -1 0
348 20 1 -0.091211 12.2259 18.5606 11.7088 0 -1 0
349 20 3 0.033922 16.2348 17.8954 13.9139 0 -1 0
350 20 3 0.033922 16.3816 18.7859 15.4353 0 -1 0
351 20 3 0.033922 17.6182 18.9449 14.1211 0 -1 0
352 20 3 0.046089 16.5437 20.9014 13.9153 0 -1 0
353 20 3 0.046089 15.9629 19.8619 12.616 0 -1 0
354 20 4 0.121889 14.2561 20.9434 14.9352 0 -1 0
355 20 4 0.121889 12.4094 19.8575 13.9288 0 -1 0
356 20 3 0.046089 13.7112 17.5537 12.9368 0 -1 0
357 20 3 0.046089 14.3575 18.7578 11.8873 0 -1 0
358 20 3 0.033922 12.0119 19.4958 11.1833 0 -1 0
359 20 3 0.033922 12.3148 17.7574 10.9715 0 -1 0
360 20 3 0.033922 11.3592 18.3729 12.3494 0 -1 0
361 21 1 -0.091211 0.44148 2.94682 14.4268 0 0 0
362 21 1 -0.050311 1.20419 2.17114 15.4376 0 0 0
363 21 2 -0.174311 0.652289 0.783291 15.4207 0 0 0
364 21 2 -0.174311 1.2844 -0.284363 15.8447 0 0 0
365 21 1 -0.050311 2.79837 -0.298144 16.1227 0 0 0
366 21 1 -0.091211 3.18955 -1.64729 16.7236 0 0 0
367 21 3 0.033922 0.610781 2.54845 13.4222 0 0 0
368 21 3 0.033922 0.745645 3.9936 14.3355 0 0 0
369 21 3 0.033922 -0.628445 2.91245 14.6522 0 0 0
370 21 3 0.046089 2.29217 2.21117 15.3306 0 0 0
371 21 3 0.046089 1.02506 2.59279 16.4309 0 0 0
372 21 4 0.121889 -0.357295 0.525391 15.1169 0 0 0
373 21 4 0.121889 0.810389 -1.25545 15.7432 0 0 0
374 21 3 0.046089 3.03337 0.49017 16.8437 0 0 0
375 21 3 0.046089 3.40387 -0.0600347 15.2434 0 0 0
376 21 3 0.033922 2.92055 22.359 16.0615 0 -1 0
377 21 3 0.033922 4.27434 23.1414 16.8572 0 -1 0
378 21 3 0.033922 2.60009 23.0537 17.6354 0 -1 0
379 22 1 -0.091211 9.69634 21.4417 12.3452 0 -1 0
380 22 1 -0.050311 9.98809 22.384 13.4732 0 -1 0
381 22 2 -0.174311 9.45456 -1.03075 13.1939 0 0 0
382 22 2 -0.174311 9.45376 -0.0203252 14.1509 0 0 0
383 22 1 -0.050311 10.1122 -0.0897146 15.4868 0 0 0
384 22 1 -0.091211 9.0232 -0.278043 16.5769 0 0 0
385 22 3 0.033922 8.60769 21.3342 12.3417 0 -1 0
386 22 3 0.033922 10.1135 20.4401 12.4843 0 -1 0
387 22 3 0.033922 10.0168 21.8215 11.3708 0 -1 0
388 22 3 0.046089 9.53453 21.9807 14.3833 0 -1 0
389 22 3 0.046089 11.0655 22.5098 13.6146 0 -1 0
390 22 4 0.121889 9.07278 -0.966639 12.1799 0 0 0
391 22 4 0.121889 9.12949 0.954152 13.7999 0 0 0
392 22 3 0.046089 10.6596 0.853826 15.5682 0 0 0
393 22 3 0.046089 10.8254 -0.912083 15.5945 0 0 0
394 22 3 0.033922 8.2788 0.520908 16.6415 0 0 0
395 22 3 0.033922 8.40862 -1.13313 16.2807 0 0 0
396 22 3 0.033922 9.53055 -0.484914 17.5236 0 0 0
397 23 1 -0.091211 4.40853 7.25623 20.3713 0 0 -1
398 23 1 -0.050311 5.76764 7.45038 19.7331 0 0 -1
399 23 2 -0.174311 6.76412 7.69845 0.924069 0 0 0
400 23 2 -0.174311 7.06245 8.91896 1.54012 0 0 0
401 23 1 -0.050311 6.33128 10.1886 1.18146 0 0 0
402 23 1 -0.091211 6.0476 11.0697 2.42988 0 0 0
403 23 3 0.033922 3.59324 7.31595 19.6445 0 0 -1
404 23 3 0.033922 4.10588 7.9362 1.2366 0 0 0
405 23 3 0.033922 4.3408 6.28743 0.938368 0 0 0
406 23 3 0.046089 6.07552 6.57655 19.1516 0 0 -1
407 23 3 0.046089 5.76745 8.39169 19.1759 0 0 -1
408 23 4 0.121889 7.23554 6.7859 1.27479 0 0 0
409 23 4 0.121889 7.80109 8.93409 2.33522 0 0 0
410 23 3 0.046089 5.38757 9.92461 0.695234 0 0 0
411 23 3 0.046089 6.88628 10.7077 20.331 0 0 -1
412 23 3 0.033922 5.46035 11.8827 1.99308 0 0 0
413 23 3 0.033922 5.54237 10.5812 3.26814 0 0 0
414 23 3 0.033922 6.92544 11.5548 2.86671 0 0 0
415 24 1 -0.091211 14.0846 14.7679 1.25521 0 0 0
416 24 1 -0.050311 12.5754 15.1821 1.48347 0 0 0
417 24 2 -0.174311 12.1476 16.2875 20.5238 0 0 -1
418 24 2 -0.174311 10.8987 16.8603 20.5776 0 0 -1
419 24 1 -0.050311 9.8341 16.5893 1.6763 0 0 0
420 24 1 -0.091211 8.8044 17.6854 1.52544 0 0 0
421 24 3 0.033922 14.4606 13.9982 1.93548 0 0 0
422 24 3 0.033922 14.7622 15.608 1.43316 0 0 0
423 24 3 0.033922 14.2482 14.4124 20.1701 0 0 -1
424 24 3 0.046089 11.9655 14.2768 1.41272 0 0 0
425 24 3 0.046089 12.5269 15.5433 2.51486 0 0 0
426 24 4 0.121889 12.8123 16.5806 19.7174 0 0 -1
427 24 4 0.121889 10.5703 17.5689 19.8238 0 0 -1
428 24 3 0.046089 10.2347 16.7581 2.68009 0 0 0
429 24 3 0.046089 9.43545 15.5715 1.71699 0 0 0
430 24 3 0.033922 8.45375 17.8443 20.4379 0 0 -1
431 24 3 0.033922 7.867 17.3461 1.97587 0 0 0
432 24 3 0.033922 9.08526 18.653 1.95142 0 0 0
433 25 1 -0.091211 5.32861 9.07886 14.9999 0 0 0
434 25 1 -0.050311 6.16363 9.99844 14.1371 0 0 0
435 25 2 -0.174311 5.46431 10.1921 12.8469 0 0 0
436 25 2 -0.174311 5.73838 9.56326 11.717 0 0 0
437 25 1 -0.050311 6.79265 8.60055 11.4542 0 0 0
438 25 1 -0.091211 6.27121 7.14432 11.6425 0 0 0
439 25 3 0.033922 4.36282 9.52849 15.2484 0 0 0
440 25 3 0.033922 5.99393 8.82704 15.8309 0 0 0
441 25 3 0.033922 5.16203 8.1626 14.4261 0 0 0
442 25 3 0.046089 6.21815 10.9453 14.682 0 0 0
443 25 3 0.046089 7.13235 9.49536 14.065 0 0 0
444 25 4 0.121889 4.59627 10.8428 12.8136 0 0 0
445 25 4 0.121889 5.02489 9.65407 10.9042 0 0 0
446 25 3 0.046089 7.58557 8.74339 12.1942 0 0 0
447 25 3 0.046089 7.22321 8.80933 10.4706 0 0 0
448 25 3 0.033922 5.51653 6.89954 10.8894 0 0 0
449 25 3 0.033922 7.15061 6.51241 11.4875 0 0 0
450 25 3 0.033922 5.89079 6.98652 12.6559 0 0 0
451 26 1 -0.091211 -1.44251 20.8549 11.0818 0 -1 0
452 26 1 -0.050311 -1.2978 21.834 12.2148 0 -1 0
453 26 2 -0.174311 0.193417 21.8635 12.5308 0 -1 0
454 26 2 -0.174311 1.03626 23.0447 12.5881 0 -1 0
455 26 1 -0.050311 0.618855 -0.450941 12.1815 0 0 0
456 26 1 -0.091211 1.57158 -0.0395996 11.0467 0 0 0
457 26 3 0.033922 -0.722949 21.153 10.3137 0 -1 0
458 26 3 0.033922 -2.44392 20.6532 10.6904 0 -1 0
459 26 3 0.033922 -1.23083 19.8554 11.4725 0 -1 0
460 26 3 0.046089 -1.63381 22.8492 11.9842 0 -1 0
461 26 3 0.046089 -1.88083 21.5886 13.1072 0 -1 0
462 26 4 0.121889 0.676436 20.9115 12.7267 0 -1 0
463 26 4 0.121889 2.08682 22.9963 12.8565 0 -1 0
464 26 3 0.046089 0.761809 0.252462 13.0069 0 0 0
465 26 3 0.046089 -0.410722 -0.391559 11.8166 0 0 0
466 26 3 0.033922 1.13102 0.840385 10.5691 0 0 0
467 26 3 0.033922 2.56151 0.256196 11.4062 0 0 0
468 26 3 0.033922 1.62818 -0.843716 10.3073 0 0 0
469 27 1 -0.091211 15.9102 11.2595 4.07093 0 0 0
470 27 1 -0.050311 17.1794 10.8916 4.91575 0 0 0
471 27 2 -0.174311 17.1344 11.7228 6.173 0 0 0
472 27 2 -0.174311 18.1952 12.1895 6.92907 0 0 0
473 27 1 -0.050311 19.644 11.9727 6.58007 0 0 0
474 27 1 -0.091211 20.6489 11.8068 7.71919 0 0 0
475 27 3 0.033922 16.0469 10.8509 3.06551 0 0 0
476 27 3 0.033922 15.8171 12.3489 4.03757 0 0 0
477 27 3 0.033922 15.0086 10.7341 4.39923 0 0 0
478 27 3 0.046089 17.1139 9.8226 5.13821 0 0 0
479 27 3 0.046089 18.0989 10.9575 4.3268 0 0 0
480 27 4 0.121889 16.1629 12.0431 6.53583 0 0 0
481 27 4 0.121889 18.0677 12.8339 7.79304 0 0 0
482 27 3 0.046089 19.9876 12.8534 6.02973 0 0 0
483 27 3 0.046089 19.7488 11.0585 5.98862 0 0 0
484 27 3 0.033922 20.2828 12.3816 8.57485 0 0 0
485 27 3 0.033922 20.6327 10.7651 8.05251 0 0 0
486 27 3 0.033922 21.6624 12.1161 7.44733 0 0 0
487 28 1 -0.091211 9.73652 0.476067 1.19214 0 0 0
488 28 1 -0.050311 8.78238 -0.630244 1.50648 0 0 0
489 28 2 -0.174311 8.08338 -1.0916 20.1907 0 0 -1
490 28 2 -0.174311 7.73681 22.3965 19.9473 0 -1 -1
491 28 1 -0.050311 7.80609 21.2642 0.925642 0 -1 0
492 28 1 -0.091211 6.56424 20.3528 0.810483 0 -1 0
493 28 3 0.033922 9.24015 1.34898 0.758267 0 0 0
494 28 3 0.033922 10.4786 0.182312 20.3804 0 0 -1
495 28 3 0.033922 10.2631 0.745245 2.11238 0 0 0
496 28 3 0.046089 9.23341 -1.44469 2.0808 0 0 0
497 28 3 0.046089 7.99651 -0.241344 2.16054 0 0 0
498 28 4 0.121889 7.77677 -0.301513 19.5126 0 0 -1
499 28 4 0.121889 7.19169 22.2554 19.0194 0 -1 -1
500 28 3 0.046089 7.90318 21.6852 1.93055 0 -1 0
501 28 3 0.046089 8.74884 20.7311 0.771665 0 -1 0
502 28 3 0.033922 6.7033 19.4595 1.42635 0 -1 0
503 28 3 0.033922 5.66717 20.843 1.19985 0 -1 0
504 28 3 0.033922 6.41075 20.1628 19.6806 0 -1 -1
505 29 1 -0.091211 7.62257 2.97922 5.40676 0 0 0
506 29 1 -0.050311 6.51007 2.83787 4.33526 0 0 0
507 29 2 -0.174311 5.94363 4.19214 3.96827 0 0 0
508 29 2 -0.174311 4.55821 4.53498 3.77934 0 0 0
509 29 1 -0.050311 3.46667 3.4964 4.02984 0 0 0
510 29 1 -0.091211 2.05593 4.21538 3.89379 0 0 0
511 29 3 0.033922 7.24921 3.37193 6.357 0 0 0
512 29 3 0.033922 8.30483 3.72604 4.99035 0 0 0
513 29 3 0.033922 8.08701 1.99068 5.46753 0 0 0
514 29 3 0.046089 6.97585 2.37501 3.46039 0 0 0
515 29 3 0.046089 5.75197 2.13264 4.68822 0 0 0
516 29 4 0.121889 6.66023 5.00106 3.86744 0 0 0
517 29 4 0.121889 4.39518 5.56174 3.46765 0 0 0
518 29 3 0.046089 3.68823 3.02609 4.99227 0 0 0
519 29 3 0.046089 3.722 2.70158 3.323 0 0 0
520 29 3 0.033922 1.98504 5.07509 4.56641 0 0 0
521 29 3 0.033922 1.73365 4.57267 2.91143 0 0 0
522 29 3 0.033922 1.26688 3.50574 4.15925 0 0 0
523 30 1 -0.091211 5.80375 22.861 7.33653 0 0 1
524 30 1 -0.050311 7.17489 22.1625 7.72675 0 0 1
525 30 2 -0.174311 8.28224 -1.59034 7.84872 0 1 1
526 30 2 -0.174311 8.97382 -1.06029 6.81377 0 1 1
527 30 1 -0.050311 8.8079 -1.47683 5.35981 0 1 1
528 30 1 -0.091211 10.0051 22.5099 4.9326 0 0 1
529 30 3 0.033922 5.93237 -1.43975 6.39039 0 1 1
530 30 3 0.033922 5.46105 -1.31384 8.13905 0 1 1
531 30 3 0.033922 5.05663 22.0677 7.24086 0 0 1
532 30 3 0.046089 7.08498 21.6686 8.69865 0 0 1
533 30 3 0.046089 7.42015 21.3888 6.99343 0 0 1
534 30 4 0.121889 8.41491 -1.24424 8.86879 0 1 1
535 30 4 0.121889 9.70952 -0.272565 6.94126 0 1 1
536 30 3 0.046089 8.64355 -0.617891 4.70271 0 1 1
537 30 3 0.046089 7.86687 22.8175 5.22044 0 0 1
538 30 3 0.033922 10.3125 21.7591 5.66629 0 0 1
539 30 3 0.033922 9.85941 21.9421 4.00909 0 0 1
540 30 3 0.033922 10.7951 23.2545 4.79814 0 0 1
541 31 1 -0.091211 22.5782 -0.559434 15.6221 0 1 0
542 31 1 -0.050311 22.5977 0.3608 14.4189 0 1 0
543 31 2 -0.174311 24.0721 0.676634 14.0665 0 1 0
544 31 2 -0.174311 24.7311 1.89696 13.8873 0 1 0
545 31 1 -0.050311 23.9821 3.21924 14.035 0 1 0
546 31 1 -0.091211 23.4513 3.68784 12.7437 0 1 0
547 31 3 0.033922 23.0893 -1.51635 15.4817 0 1 0
548 31 3 0.033922 21.5162 -0.814567 15.6832 0 1 0
549 31 3 0.033922 22.9113 -0.133984 16.5732 0 1 0
550 31 3 0.046089 22.0848 -0.0757503 13.557 0 1 0
551 31 3 0.046089 22.0075 1.22544 14.7363 0 1 0
552 31 4 0.121889 24.6858 -0.172672 13.7836 0 1 0
553 31 4 0.121889 25.7775 1.94644 13.6032 0 1 0
554 31 3 0.046089 24.6527 4.0026 14.4001 0 1 0
555 31 3 0.046089 23.2213 3.09557 14.8113 0 1 0
556 31 3 0.033922 24.3229 3.82052 12.0962 0 1 0
557 31 3 0.033922 22.7498 2.97068 12.3075 0 1 0
558 31 3 0.033922 22.9511 4.64322 12.9271 0 1 0
559 32 1 -0.091211 17.3879 1.58761 3.30388 0 1 0
560 32 1 -0.050311 16.3707 0.720092 4.07475 0 1 0
561 32 2 -0.174311 16.7708 -0.769033 3.89736 0 1 0
562 32 2 -0.174311 16.9628 23.2168 4.96256 0 0 0
563 32 1 -0.050311 16.6358 -1.21911 6.32106 0 1 0
564 32 1 -0.091211 16.9544 22.5763 7.40463 0 0 0
565 32 3 0.033922 17.1589 2.6554 3.36689 0 1 0
566 32 3 0.033922 17.3253 1.34811 2.2384 0 1 0
567 32 3 0.033922 18.3902 1.42084 3.70921 0 1 0
568 32 3 0.046089 16.2595 1.13332 5.08143 0 1 0
569 32 3 0.046089 15.3746 0.826508 3.63539 0 1 0
570 32 4 0.121889 17.1456 -1.1396 2.94862 0 1 0
571 32 4 0.121889 17.4248 22.2625 4.73055 0 0 0
572 32 3 0.046089 15.5708 -0.977113 6.38223 0 1 0
573 32 3 0.046089 17.2386 -0.31857 6.47054 0 1 0
574 32 3 0.033922 16.9018 23.0234 8.40153 0 0 0
575 32 3 0.033922 16.3694 21.6549 7.47909 0 0 0
576 32 3 0.033922 17.9671 22.1933 7.24814 0 0 0
577 33 1 -0.091211 11.2465 15.1981 14.2295 0 0 0
578 33 1 -0.050311 10.8365 15.7501 15.5443 0 0 0
579 33 2 -0.174311 11.5582 15.0185 16.6534 0 0 0
580 33 2 -0.174311 12.8634 15.1107 17.2454 0 0 0
581 33 1 -0.050311 13.9207 16.0928 16.6451 0 0 0
582 33 1 -0.091211 14.9217 16.5307 17.7057 0 0 0
583 33 3 0.033922 11.2637 14.1052 14.1865 0 0 0
584 33 3 0.033922 12.2278 15.4424 13.8123 0 0 0
585 33 3 0.033922 10.537 15.5414 13.4711 0 0 0
586 33 3 0.046089 10.9967 16.8312 15.5887 0 0 0
587 33 3 0.046089 9.75302 15.6403 15.6484 0 0 0
588 33 4 0.121889 10.9033 14.37 17.2267 0 0 0
589 33 4 0.121889 13.1825 14.4636 18.0562 0 0 0
590 33 3 0.046089 13.3611 16.9538 16.2683 0 0 0
591 33 3 0.046089 14.4491 15.631 15.8059 0 0 0
592 33 3 0.033922 14.3459 17.0504 18.4771 0 0 0
593 33 3 0.033922 15.4153 15.6904 18.2024 0 0 0
594 33 3 0.033922 15.6574 17.1896 17.2354 0 0 0
595 34 1 -0.091211 15.2088 14.1331 12.8068 0 0 0
596 34 1 -0.050311 16.1303 14.9537 11.794 0 0 0
597 34 2 -0.174311 17.1929 15.6347 12.6707 0 0 0
598 34 2 -0.174311 17.9193 16.6611 12.1781 0 0 0
599 34 1 -0.050311 17.8493 17.2481 10.7865 0 0 0
600 34 1 -0.091211 19.0058 18.2448 10.5901 0 0 0
601 34 3 0.033922 15.8273 13.388 13.3156 0 0 0
602 34 3 0.033922 14.4436 13.5499 12.2862 0 0 0
603 34 3 0.033922 14.7966 14.7421 13.6167 0 0 0
604 34 3 0.046089 16.6184 14.3047 11.061 0 0 0
605 34 3 0.046089 15.5217 15.6538 11.2142 0 0 0
606 34 4 0.121889 17.3809 15.2909 13.6829 0 0 0
607 34 4 0.121889 18.7266 17.0368 12.7987 0 0 0
608 34 3 0.046089 16.9401 17.8411 10.6508 0 0 0
609 34 3 0.046089 17.8687 16.5201 9.97021 0 0 0
610 34 3 0.033922 19.9055 17.6246 10.6427 0 0 0
611 34 3 0.033922 18.8559 18.6916 9.60297 0 0 0
612 34 3 0.033922 19.0328 19.0099 11.3714 0 0 0
613 35 1 -0.091211 37.4588 11.6289 13.1966 -1 0 0
614 35 1 -0.050311 36.9552 11.2683 14.6419 -1 0 0
615 35 2 -0.174311 36.5359 9.80118 14.6998 -1 0 0
616 35 2 -0.174311 36.3376 9.16325 15.8916 -1 0 0