ITEM: TIMESTEP
15400
ITEM: NUMBER OF ATOMS
1800
ITEM: BOX BOUNDS pp pp pp
-1.2261125674052096e+00 4.0034128067405000e+01
-4.0333469618584239e-01 2.2011990196185927e+01
-1.8645127086885633e+00 2.3118246208688767e+01
ITEM: ATOMS id mol type q x y z ix iy iz
1 1 1 -0.091211 7.98023 18.2402 2.06721 0 -1 0
2 1 1 -0.050311 6.66685 18.7802 2.34583 0 -1 0
3 1 2 -0.174311 6.8066 20.2585 2.39239 0 -1 0
4 1 2 -0.174311 5.85137 21.1495 2.93978 0 -1 0
5 1 1 -0.050311 4.43857 20.8177 3.49183 0 -1 0
6 1 1 -0.091211 4.18053 21.2751 4.89224 0 -1 0
7 1 3 0.033922 8.14713 18.4514 1.00694 0 -1 0
8 1 3 0.033922 7.94872 17.16 2.23703 0 -1 0
9 1 3 0.033922 8.79122 18.7197 2.62307 0 -1 0
10 1 3 0.046089 6.01866 18.4817 1.51674 0 -1 0
11 1 3 0.046089 6.32605 18.4648 3.33631 0 -1 0
12 1 4 0.121889 7.75672 20.6599 2.05457 0 -1 0
13 1 4 0.121889 6.19436 -0.240808 2.84089 0 0 0
14 1 3 0.046089 4.38961 19.7267 3.55493 0 -1 0
15 1 3 0.046089 3.61044 21.2121 2.89582 0 -1 0
16 1 3 0.033922 3.20164 20.8835 5.18383 0 -1 0
17 1 3 0.033922 4.94782 20.9223 5.58754 0 -1 0
18 1 3 0.033922 4.18047 -0.0471416 4.8504 0 0 0
19 2 1 -0.091211 8.11705 20.909 12.722 0 -1 0
20 2 1 -0.050311 7.71046 -0.370235 13.5924 0 0 0
21 2 2 -0.174311 8.73506 -0.195002 14.7833 0 0 0
22 2 2 -0.174311 9.04778 1.02599 15.3106 0 0 0
23 2 1 -0.050311 8.57528 2.45395 15.0299 0 0 0
24 2 1 -0.091211 7.45737 2.813 16.0159 0 0 0
25 2 3 0.033922 7.59851 19.9703 12.9375 0 -1 0
26 2 3 0.033922 9.15374 20.661 12.9677 0 -1 0
27 2 3 0.033922 7.90732 21.101 11.6657 0 -1 0
28 2 3 0.046089 7.58213 0.572646 13.0528 0 0 0
29 2 3 0.046089 6.73165 -0.63001 14.006 0 0 0
30 2 4 0.121889 9.30964 21.3535 15.0939 0 -1 0
31 2 4 0.121889 9.7452 0.945932 16.1384 0 0 0
32 2 3 0.046089 8.22191 2.4135 13.9954 0 0 0
33 2 3 0.046089 9.47795 3.0656 15.1176 0 0 0
34 2 3 0.033922 7.76809 3.02485 17.0432 0 0 0
35 2 3 0.033922 6.94425 3.70538 15.6458 0 0 0
36 2 3 0.033922 6.76391 1.97557 16.1361 0 0 0
37 3 1 -0.091211 -0.429938 2.97058 6.52545 0 0 0
38 3 1 -0.050311 0.337583 4.03688 5.66521 0 0 0
39 3 2 -0.174311 0.102867 5.4669 5.98932 0 0 0
40 3 2 -0.174311 1.09358 6.40888 5.92983 0 0 0
41 3 1 -0.050311 2.53637 6.2735 5.52296 0 0 0
42 3 1 -0.091211 3.43635 6.19077 6.76149 0 0 0
43 3 3 0.033922 -0.141522 2.99878 7.58028 0 0 0
44 3 3 0.033922 -0.235289 1.94274 6.20567 0 0 0
45 3 3 0.033922 39.7669 3.21795 6.45701 -1 0 0
46 3 3 0.046089 1.36813 3.67198 5.70299 0 0 0
47 3 3 0.046089 0.0083009 3.92356 4.62821 0 0 0
48 3 4 0.121889 -0.883362 5.85982 6.21507 0 0 0
49 3 4 0.121889 0.745237 7.42526 6.08355 0 0 0
50 3 3 0.046089 2.856 7.02114 4.79118 0 0 0
51 3 3 0.046089 2.62843 5.3557 4.93493 0 0 0
52 3 3 0.033922 4.24937 5.46809 6.64596 0 0 0
53 3 3 0.033922 3.85406 7.17524 6.99163 0 0 0
54 3 3 0.033922 2.8568 5.96495 7.66136 0 0 0
55 4 1 -0.091211 5.77783 6.47633 4.24215 0 0 0
56 4 1 -0.050311 7.21727 6.72827 3.63412 0 0 0
57 4 2 -0.174311 7.49135 6.00051 2.2906 0 0 0
58 4 2 -0.174311 7.7795 4.60805 2.19894 0 0 0
59 4 1 -0.050311 7.86815 3.70823 3.39684 0 0 0
60 4 1 -0.091211 6.97084 2.4302 3.14632 0 0 0
61 4 3 0.033922 5.51379 5.41574 4.19678 0 0 0
62 4 3 0.033922 4.99049 7.11157 3.826 0 0 0
63 4 3 0.033922 5.74488 6.64621 5.32229 0 0 0
64 4 3 0.046089 7.36762 7.81179 3.63419 0 0 0
65 4 3 0.046089 7.96151 6.2647 4.28821 0 0 0
66 4 4 0.121889 7.48232 6.63706 1.41154 0 0 0
67 4 4 0.121889 8.11953 4.19986 1.25248 0 0 0
68 4 3 0.046089 7.47452 4.24528 4.26475 0 0 0
69 4 3 0.046089 8.90815 3.3983 3.53455 0 0 0
70 4 3 0.033922 7.31153 1.64278 3.82495 0 0 0
71 4 3 0.033922 5.92864 2.69502 3.34703 0 0 0
72 4 3 0.033922 7.08234 2.03989 2.13051 0 0 0
73 5 1 -0.091211 36.7016 5.02599 7.32319 -1 0 0
74 5 1 -0.050311 36.591 4.88465 5.78786 -1 0 0
75 5 2 -0.174311 37.1797 5.98484 4.92084 -1 0 0
76 5 2 -0.174311 36.5957 7.17098 4.61161 -1 0 0
77 5 1 -0.050311 35.3152 7.61839 5.21788 -1 0 0
78 5 1 -0.091211 34.7335 8.91138 4.5812 -1 0 0
79 5 3 0.033922 37.6385 4.53436 7.60095 -1 0 0
80 5 3 0.033922 35.8585 4.57747 7.85657 -1 0 0
81 5 3 0.033922 36.8248 6.07259 7.61656 -1 0 0
82 5 3 0.046089 37.168 3.983 5.56271 -1 0 0
83 5 3 0.046089 35.5477 4.7148 5.50608 -1 0 0
84 5 4 0.121889 38.1563 5.87473 4.4603 -1 0 0
85 5 4 0.121889 37.1373 7.95505 4.0921 -1 0 0
86 5 3 0.046089 35.3629 7.67624 6.30922 -1 0 0
87 5 3 0.046089 34.526 6.88129 5.0435 -1 0 0
88 5 3 0.033922 33.6793 9.08885 4.81269 -1 0 0
89 5 3 0.033922 35.1827 9.81276 5.00825 -1 0 0
90 5 3 0.033922 34.8806 8.88049 3.49767 -1 0 0
91 6 1 -0.091211 12.5975 10.1055 1.16734 0 0 1
92 6 1 -0.050311 11.2478 9.98769 0.462861 0 0 1
93 6 2 -0.174311 11.434 8.98858 -0.688722 0 0 1
94 6 2 -0.174311 10.6827 9.05328 -1.87494 0 0 1
95 6 1 -0.050311 9.39463 9.88318 22.8946 0 0 0
96 6 1 -0.091211 8.84612 9.67949 21.4848 0 0 0
97 6 3 0.033922 12.9694 9.08016 1.25074 0 0 1
98 6 3 0.033922 12.517 10.5887 2.14546 0 0 1
99 6 3 0.033922 13.351 10.6669 0.607284 0 0 1
100 6 3 0.046089 10.5926 9.54811 1.22057 0 0 1
101 6 3 0.046089 10.8397 10.9359 0.100947 0 0 1
102 6 4 0.121889 12.2633 8.28914 -0.71999 0 0 1
103 6 4 0.121889 10.9084 8.29288 22.367 0 0 0
104 6 3 0.046089 9.5775 10.9478 23.0674 0 0 0
105 6 3 0.046089 8.68161 9.59377 -1.3107 0 0 1
106 6 3 0.033922 8.00065 10.3558 21.3284 0 0 0
107 6 3 0.033922 9.62968 9.79064 20.7296 0 0 0
108 6 3 0.033922 8.49812 8.64244 21.4909 0 0 0
109 7 1 -0.091211 33.7118 19.4592 7.86645 -1 0 0
110 7 1 -0.050311 33.2683 18.0105 7.51841 -1 0 0
111 7 2 -0.174311 32.9083 17.8822 6.01644 -1 0 0
112 7 2 -0.174311 33.7209 17.1456 5.17838 -1 0 0
113 7 1 -0.050311 34.8726 16.3373 5.72437 -1 0 0
114 7 1 -0.091211 35.4384 15.2925 4.7162 -1 0 0
115 7 3 0.033922 32.8473 20.1226 7.96271 -1 0 0
116 7 3 0.033922 34.3898 19.9112 7.13663 -1 0 0
117 7 3 0.033922 34.271 19.4123 8.80544 -1 0 0
118 7 3 0.046089 34.1123 17.342 7.71201 -1 0 0
119 7 3 0.046089 32.42 17.7031 8.13689 -1 0 0
120 7 4 0.121889 31.9768 18.2655 5.61223 -1 0 0
121 7 4 0.121889 33.5574 16.9584 4.12185 -1 0 0
122 7 3 0.046089 34.4883 15.7368 6.55404 -1 0 0
123 7 3 0.046089 35.6186 17.0408 6.10546 -1 0 0
124 7 3 0.033922 36.3138 14.8134 5.1643 -1 0 0
125 7 3 0.033922 34.676 14.5788 4.39061 -1 0 0
126 7 3 0.033922 35.8261 15.7935 3.82441 -1 0 0
127 8 1 -0.091211 1.86124 9.98091 11.3786 0 0 0
128 8 1 -0.050311 0.702749 9.08248 11.1578 0 0 0
129 8 2 -0.174311 1.16623 7.66211 11.6616 0 0 0
130 8 2 -0.174311 0.833864 6.39246 11.1511 0 0 0
131 8 1 -0.050311 -0.19897 6.1021 10.0911 0 0 0
132 8 1 -0.091211 -1.24808 5.15707 10.6455 0 0 0
133 8 3 0.033922 2.71119 9.48053 10.9055 0 0 0
134 8 3 0.033922 2.06422 10.1815 12.4346 0 0 0
135 8 3 0.033922 1.65864 10.9474 10.9079 0 0 0
136 8 3 0.046089 -0.128201 9.47599 11.7505 0 0 0
137 8 3 0.046089 0.479422 9.03984 10.0878 0 0 0
138 8 4 0.121889 1.82566 7.62184 12.5227 0 0 0
139 8 4 0.121889 1.44947 5.64371 11.6394 0 0 0
140 8 3 0.046089 0.24685 5.48744 9.30366 0 0 0
141 8 3 0.046089 -0.694724 7.02434 9.7744 0 0 0
142 8 3 0.033922 39.3469 4.79218 9.85752 -1 0 0
143 8 3 0.033922 -0.745355 4.3021 11.1069 0 0 0
144 8 3 0.033922 39.3512 5.61568 11.3867 -1 0 0
145 9 1 -0.091211 2.49028 6.91122 16.0656 0 0 0
146 9 1 -0.050311 3.84747 6.83832 15.3485 0 0 0
147 9 2 -0.174311 4.78727 5.95043 16.0795 0 0 0
148 9 2 -0.174311 5.75483 6.3089 16.9971 0 0 0
149 9 1 -0.050311 5.76316 7.77403 17.5026 0 0 0
150 9 1 -0.091211 6.94993 7.95118 18.4149 0 0 0
151 9 3 0.033922 2.17329 5.93743 16.4501 0 0 0
152 9 3 0.033922 1.7835 7.24146 15.2987 0 0 0
153 9 3 0.033922 2.44925 7.68718 16.8355 0 0 0
154 9 3 0.046089 3.68261 6.39917 14.3602 0 0 0
155 9 3 0.046089 4.22351 7.86058 15.2474 0 0 0
156 9 4 0.121889 4.80212 4.9237 15.7279 0 0 0
157 9 4 0.121889 6.46672 5.62945 17.4548 0 0 0
158 9 3 0.046089 4.88213 7.99696 18.1115 0 0 0
159 9 3 0.046089 5.93667 8.43492 16.6484 0 0 0
160 9 3 0.033922 7.02185 7.09663 19.094 0 0 0
161 9 3 0.033922 7.83384 8.16236 17.806 0 0 0
162 9 3 0.033922 6.78336 8.87629 18.9744 0 0 0
163 10 1 -0.091211 1.69311 11.3576 1.67734 0 0 1
164 10 1 -0.050311 1.82703 11.9892 0.248354 0 0 1
165 10 2 -0.174311 1.59149 13.5395 0.302106 0 0 1
166 10 2 -0.174311 1.30818 14.3076 -0.780487 0 0 1
167 10 1 -0.050311 1.12698 13.7274 22.7618 0 0 0
168 10 1 -0.091211 1.38305 14.7758 21.653 0 0 0
169 10 3 0.033922 2.40243 11.8712 2.33287 0 0 1
170 10 3 0.033922 1.91021 10.292 1.55971 0 0 1
171 10 3 0.033922 0.698187 11.4825 2.11455 0 0 1
172 10 3 0.046089 2.8085 11.8559 -0.215938 0 0 1
173 10 3 0.046089 1.07337 11.4914 -0.368777 0 0 1
174 10 4 0.121889 1.48023 14.0535 1.25158 0 0 1
175 10 4 0.121889 1.13453 15.3651 -0.608336 0 0 1
176 10 3 0.046089 0.121973 13.3008 22.6945 0 0 0
177 10 3 0.046089 1.79104 12.8665 22.6417 0 0 0
178 10 3 0.033922 2.4344 15.0695 21.7235 0 0 0
179 10 3 0.033922 1.32875 14.3544 20.6449 0 0 0
180 10 3 0.033922 0.763633 15.6643 21.8061 0 0 0
181 11 1 -0.091211 37.3475 13.295 21.3654 -1 0 -1
182 11 1 -0.050311 38.1393 14.3262 22.2127 -1 0 -1
183 11 2 -0.174311 37.5956 14.2736 -1.33002 -1 0 0
184 11 2 -0.174311 36.5088 15.0078 -0.838323 -1 0 0
185 11 1 -0.050311 35.7526 15.9352 -1.71815 -1 0 0
186 11 1 -0.091211 34.3188 16.1713 -1.32218 -1 0 0
187 11 3 0.033922 37.5157 12.2487 21.6366 -1 0 -1
188 11 3 0.033922 37.6089 13.5147 20.3261 -1 0 -1
189 11 3 0.033922 36.2776 13.3857 21.5742 -1 0 -1
190 11 3 0.046089 39.1891 14.019 22.1993 -1 0 -1
191 11 3 0.046089 38.0145 15.3252 21.7849 -1 0 -1
192 11 4 0.121889 38.0968 13.7144 -0.546373 -1 0 0
193 11 4 0.121889 36.3639 15.0473 0.236619 -1 0 0
194 11 3 0.046089 35.8402 15.6165 22.2218 -1 0 -1
195 11 3 0.046089 36.2763 16.8883 -1.60011 -1 0 0
196 11 3 0.033922 33.7651 16.8257 22.981 -1 0 -1
197 11 3 0.033922 33.7181 15.2681 -1.46383 -1 0 0
198 11 3 0.033922 34.2596 16.5384 -0.293395 -1 0 0
199 12 1 -0.091211 39.6947 15.4052 3.84566 -1 0 0
200 12 1 -0.050311 -0.300339 16.2887 3.67258 0 0 0
201 12 2 -0.174311 0.5532 16.0867 4.94667 0 0 0
202 12 2 -0.174311 1.91957 16.274 4.86186 0 0 0
203 12 1 -0.050311 2.55063 16.8895 3.72226 0 0 0
204 12 1 -0.091211 3.46157 15.8678 3.08146 0 0 0
205 12 3 0.033922 39.8402 14.5081 4.45455 -1 0 0
206 12 3 0.033922 39.3751 15.0423 2.86446 -1 0 0
207 12 3 0.033922 38.8686 15.9833 4.27 -1 0 0
208 12 3 0.046089 0.17923 16.0645 2.7153 0 0 0
209 12 3 0.046089 -0.540076 17.3559 3.6531 0 0 0
210 12 4 0.121889 0.17018 15.5795 5.82651 0 0 0
211 12 4 0.121889 2.61032 15.9798 5.64565 0 0 0
212 12 3 0.046089 3.16433 17.7088 4.10785 0 0 0
213 12 3 0.046089 1.90103 17.3344 2.96285 0 0 0
214 12 3 0.033922 4.14508 15.5519 3.87497 0 0 0
215 12 3 0.033922 2.8961 14.9972 2.73663 0 0 0
216 12 3 0.033922 3.89141 16.3207 2.18326 0 0 0
217 13 1 -0.091211 5.8529 11.8499 7.33785 0 0 0
218 13 1 -0.050311 4.65131 11.2601 8.05447 0 0 0
219 13 2 -0.174311 3.74 10.4247 7.10902 0 0 0
220 13 2 -0.174311 2.35189 10.4273 7.12205 0 0 0
221 13 1 -0.050311 1.46002 11.4499 7.91875 0 0 0
222 13 1 -0.091211 1.42657 12.8078 7.20712 0 0 0
223 13 3 0.033922 6.3036 11.0927 6.68966 0 0 0
224 13 3 0.033922 6.66265 12.161 8.0043 0 0 0
225 13 3 0.033922 5.55796 12.7392 6.7733 0 0 0
226 13 3 0.046089 5.05836 10.6886 8.89378 0 0 0
227 13 3 0.046089 4.06435 12.0086 8.59469 0 0 0
228 13 4 0.121889 4.16299 9.65661 6.4694 0 0 0
229 13 4 0.121889 1.885 9.61693 6.5713 0 0 0
230 13 3 0.046089 1.82909 11.7247 8.91119 0 0 0
231 13 3 0.046089 0.452296 11.0794 8.12812 0 0 0
232 13 3 0.033922 2.42451 13.2162 7.02284 0 0 0
233 13 3 0.033922 0.997434 12.6595 6.21189 0 0 0
234 13 3 0.033922 0.802212 13.4878 7.79394 0 0 0
235 14 1 -0.091211 9.61827 11.881 18.2452 0 0 0
236 14 1 -0.050311 8.19422 12.3703 17.7901 0 0 0
237 14 2 -0.174311 7.74999 11.5749 16.6072 0 0 0
238 14 2 -0.174311 6.47438 11.522 16.0918 0 0 0
239 14 1 -0.050311 5.36655 12.3987 16.6627 0 0 0
240 14 1 -0.091211 4.17767 12.2121 15.7453 0 0 0
241 14 3 0.033922 10.4315 12.1542 17.5664 0 0 0
242 14 3 0.033922 9.61538 10.7881 18.2914 0 0 0
243 14 3 0.033922 9.84409 12.3037 19.2285 0 0 0
244 14 3 0.046089 7.4941 12.1873 18.6104 0 0 0
245 14 3 0.046089 8.10523 13.4502 17.6404 0 0 0
246 14 4 0.121889 8.51609 10.9972 16.0998 0 0 0
247 14 4 0.121889 6.23606 10.8534 15.2707 0 0 0
248 14 3 0.046089 5.6837 13.4444 16.6135 0 0 0
249 14 3 0.046089 5.1842 12.0937 17.6973 0 0 0
250 14 3 0.033922 3.30138 12.7132 16.1667 0 0 0
251 14 3 0.033922 4.48995 12.631 14.7842 0 0 0
252 14 3 0.033922 3.98397 11.1554 15.5392 0 0 0
253 15 1 -0.091211 0.802985 18.6043 20.5828 0 0 0
254 15 1 -0.050311 2.22778 19.1065 20.7384 0 0 0
255 15 2 -0.174311 3.2225 18.0529 20.422 0 0 0
256 15 2 -0.174311 4.22968 17.555 21.2186 0 0 0
257 15 1 -0.050311 4.3223 17.7588 22.7384 0 0 0
258 15 1 -0.091211 5.78551 17.5942 -1.72427 0 0 1
259 15 3 0.033922 0.63755 18.1336 19.6093 0 0 0
260 15 3 0.033922 0.0328784 19.3658 20.7369 0 0 0
261 15 3 0.033922 0.681422 17.8143 21.3295 0 0 0
262 15 3 0.046089 2.35049 19.9758 20.0858 0 0 0
263 15 3 0.046089 2.35984 19.521 21.7421 0 0 0
264 15 4 0.121889 3.22942 17.6187 19.4273 0 0 0
265 15 4 0.121889 4.92032 16.9004 20.6967 0 0 0
266 15 3 0.046089 3.64616 17.0561 23.2339 0 0 0
267 15 3 0.046089 4.12932 18.7789 23.0831 0 0 0
268 15 3 0.033922 6.1082 16.5756 23.0244 0 0 0
269 15 3 0.033922 6.44685 18.331 22.7933 0 0 0
270 15 3 0.033922 5.87461 17.7086 -0.640004 0 0 1
271 16 1 -0.091211 12.503 20.4371 4.52391 0 0 0
272 16 1 -0.050311 11.9705 21.6863 5.18625 0 0 0
273 16 2 -0.174311 12.0669 0.526118 4.34999 0 1 0
274 16 2 -0.174311 11.2222 0.910905 3.3499 0 1 0
275 16 1 -0.050311 10.143 0.048628 2.70231 0 1 0
276 16 1 -0.091211 10.0699 0.235741 1.20399 0 1 0
277 16 3 0.033922 12.1963 20.2956 3.48344 0 0 0
278 16 3 0.033922 12.1424 19.5805 5.10078 0 0 0
279 16 3 0.033922 13.5965 20.4103 4.50915 0 0 0
280 16 3 0.046089 10.919 21.5012 5.42405 0 0 0
281 16 3 0.046089 12.5284 21.8799 6.1071 0 0 0
282 16 4 0.121889 12.873 1.18315 4.66088 0 1 0
283 16 4 0.121889 11.4049 1.89905 2.9398 0 1 0
284 16 3 0.046089 9.20473 0.362432 3.16891 0 1 0
285 16 3 0.046089 10.251 21.3933 2.89908 0 0 0
286 16 3 0.033922 9.17556 22.1833 0.782056 0 0 0
287 16 3 0.033922 9.918 1.30966 1.06172 0 1 0
288 16 3 0.033922 11.001 0.0241029 0.670272 0 1 0
289 17 1 -0.091211 10.4235 14.5891 8.5611 0 0 0
290 17 1 -0.050311 9.72764 15.5495 7.54096 0 0 0
291 17 2 -0.174311 8.2257 15.5893 7.832 0 0 0
292 17 2 -0.174311 7.33274 16.6058 7.48812 0 0 0
293 17 1 -0.050311 7.88115 17.8648 6.86343 0 0 0
294 17 1 -0.091211 6.99036 18.952 7.1031 0 0 0
295 17 3 0.033922 10.4325 15.0721 9.54252 0 0 0
296 17 3 0.033922 11.4588 14.4817 8.22466 0 0 0
297 17 3 0.033922 9.87759 13.6429 8.5034 0 0 0
298 17 3 0.046089 10.1008 16.5599 7.73166 0 0 0
299 17 3 0.046089 9.8888 15.121 6.54746 0 0 0
300 17 4 0.121889 7.7638 14.6952 8.23852 0 0 0
301 17 4 0.121889 6.26739 16.559 7.69022 0 0 0
302 17 3 0.046089 8.10296 17.6975 5.80538 0 0 0
303 17 3 0.046089 8.85435 18.1461 7.27613 0 0 0
304 17 3 0.033922 7.5101 19.8768 6.83597 0 0 0
305 17 3 0.033922 6.10035 18.7792 6.49104 0 0 0
306 17 3 0.033922 6.65833 18.9204 8.14493 0 0 0
307 18 1 -0.091211 3.31348 21.6952 -0.573023 0 0 1
308 18 1 -0.050311 3.76794 0.720343 -0.749554 0 1 1
309 18 2 -0.174311 2.56952 1.59688 -0.717446 0 1 1
310 18 2 -0.174311 2.28463 2.53767 0.295792 0 1 1
311 18 1 -0.050311 3.25053 2.98385 1.34013 0 1 1
312 18 1 -0.091211 2.94474 2.52192 2.79241 0 1 1
313 18 3 0.033922 2.91331 21.2934 -1.50845 0 0 1
314 18 3 0.033922 2.53466 21.7778 0.190693 0 0 1
315 18 3 0.033922 4.171 21.1688 -0.143927 0 0 1
316 18 3 0.046089 4.43225 0.987405 0.077495 0 1 1
317 18 3 0.046089 4.25876 0.778059 -1.72547 0 1 1
318 18 4 0.121889 1.76359 1.43123 -1.4253 0 1 1
319 18 4 0.121889 1.28059 2.94975 0.304388 0 1 1
320 18 3 0.046089 3.3006 4.07633 1.31589 0 1 1
321 18 3 0.046089 4.25148 2.65091 1.05056 0 1 1
322 18 3 0.033922 3.7188 2.91597 3.45737 0 1 1
323 18 3 0.033922 1.95137 2.87091 3.0891 0 1 1
324 18 3 0.033922 2.91723 1.42886 2.75961 0 1 1
325 19 1 -0.091211 14.539 0.787566 20.7323 0 0 -1
326 19 1 -0.050311 15.8135 1.2595 21.3468 0 0 -1
327 19 2 -0.174311 15.6211 1.72576 22.8296 0 0 -1
328 19 2 -0.174311 16.314 2.607 -1.43239 0 0 0
329 19 1 -0.050311 17.4073 3.37946 22.9497 0 0 -1
330 19 1 -0.091211 16.787 4.74666 22.5082 0 0 -1
331 19 3 0.033922 14.1036 -0.0394791 21.3007 0 0 -1
332 19 3 0.033922 14.7134 0.430367 19.7132 0 0 -1
333 19 3 0.033922 13.8373 1.62591 20.7704 0 0 -1
334 19 3 0.046089 16.5242 0.427919 21.3492 0 0 -1
335 19 3 0.046089 16.1909 2.02164 20.6588 0 0 -1
336 19 4 0.121889 14.7992 1.26717 -1.61258 0 0 0
337 19 4 0.121889 15.9491 2.90385 -0.454243 0 0 0
338 19 3 0.046089 17.8085 2.89941 22.0524 0 0 -1
339 19 3 0.046089 18.2429 3.52325 -1.34189 0 0 0
340 19 3 0.033922 16.3158 5.27726 -1.64207 0 0 0
341 19 3 0.033922 17.5679 5.39784 22.1046 0 0 -1
342 19 3 0.033922 16.0583 4.7049 21.6934 0 0 -1
343 20 1 -0.091211 15.0894 3.11006 8.86197 0 0 0
344 20 1 -0.050311 13.908 4.093 8.50178 0 0 0
345 20 2 -0.174311 12.6314 3.28285 8.25366 0 0 0
346 20 2 -0.174311 11.8191 3.33653 7.08602 0 0 0
347 20 1 -0.050311 12.0915 4.08045 5.82324 0 0 0
348 20 1 -0.091211 10.8156 4.90477 5.47116 0 0 0
349 20 3 0.033922 14.9806 2.615 9.83136 0 0 0
350 20 3 0.033922 15.9611 3.76603 8.94263 0 0 0
351 20 3 0.033922 15.3504 2.4882 8.00069 0 0 0
352 20 3 0.046089 13.7482 4.86261 9.26258 0 0 0
353 20 3 0.046089 14.1104 4.6536 7.58451 0 0 0
354 20 4 0.121889 12.3598 2.68498 9.11785 0 0 0
355 20 4 0.121889 10.9109 2.74305 7.05556 0 0 0
356 20 3 0.046089 12.2459 3.38736 4.99112 0 0 0
357 20 3 0.046089 12.9129 4.80007 5.88631 0 0 0
358 20 3 0.033922 10.9091 5.60096 4.63259 0 0 0
359 20 3 0.033922 9.9392 4.27487 5.29302 0 0 0
360 20 3 0.033922 10.5448 5.57039 6.29592 0 0 0
361 21 1 -0.091211 0.555642 2.6496 19.4419 0 0 0
362 21 1 -0.050311 2.01651 2.23434 19.2473 0 0 0
363 21 2 -0.174311 2.23174 0.873158 19.9471 0 0 0
364 21 2 -0.174311 3.46512 0.266311 19.8755 0 0 0
365 21 1 -0.050311 4.73482 0.829319 19.3276 0 0 0
366 21 1 -0.091211 5.61168 -0.388096 18.9312 0 0 0
367 21 3 0.033922 -0.144533 1.85368 19.172 0 0 0
368 21 3 0.033922 0.355596 3.52224 18.8134 0 0 0
369 21 3 0.033922 0.376493 2.90492 20.4905 0 0 0
370 21 3 0.046089 2.1257 2.0996 18.1673 0 0 0
371 21 3 0.046089 2.63802 3.04207 19.6447 0 0 0
372 21 4 0.121889 1.3612 0.491812 20.4712 0 0 0
373 21 4 0.121889 3.60007 21.8147 20.5145 0 -1 0
374 21 3 0.046089 5.26586 1.43858 20.0648 0 0 0
375 21 3 0.046089 4.63465 1.52045 18.4857 0 0 0
376 21 3 0.033922 6.4947 -0.0754901 18.3662 0 0 0
377 21 3 0.033922 5.91833 21.5246 19.8531 0 -1 0
378 21 3 0.033922 5.05127 21.3205 18.3122 0 -1 0
379 22 1 -0.091211 11.1531 20.5664 19.9271 0 -1 0
380 22 1 -0.050311 10.0841 21.295 20.767 0 -1 0
381 22 2 -0.174311 10.3829 0.320716 20.7049 0 0 0
382 22 2 -0.174311 9.6794 1.27447 21.3982 0 0 0
383 22 1 -0.050311 8.35054 0.972502 22.0546 0 0 0
384 22 1 -0.091211 7.85118 2.1232 22.9562 0 0 0
385 22 3 0.033922 11.3068 21.0437 18.9549 0 -1 0
386 22 3 0.033922 10.8696 19.5275 19.7347 0 -1 0
387 22 3 0.033922 12.0416 20.4975 20.5615 0 -1 0
388 22 3 0.046089 9.16047 21.1419 20.2013 0 -1 0
389 22 3 0.046089 10.0792 20.8183 21.7516 0 -1 0
390 22 4 0.121889 11.1875 0.495364 19.9976 0 0 0
391 22 4 0.121889 9.94629 2.32607 21.4284 0 0 0
392 22 3 0.046089 8.44989 0.102788 22.7106 0 0 0
393 22 3 0.046089 7.57561 0.781709 21.3065 0 0 0
394 22 3 0.033922 6.91969 1.84226 -1.52656 0 0 1
395 22 3 0.033922 8.53065 2.28082 -1.1839 0 0 1
396 22 3 0.033922 7.75512 3.03672 22.3622 0 0 0
397 23 1 -0.091211 15.7411 3.41289 3.94071 0 0 0
398 23 1 -0.050311 14.8511 4.32124 3.11343 0 0 0
399 23 2 -0.174311 13.8178 3.50979 2.21425 0 0 0
400 23 2 -0.174311 12.7699 4.04377 1.51219 0 0 0
401 23 1 -0.050311 12.366 5.49909 1.32877 0 0 0
402 23 1 -0.091211 10.8835 5.66947 1.53405 0 0 0
403 23 3 0.033922 15.1229 3.06731 4.77446 0 0 0
404 23 3 0.033922 16.5821 3.95193 4.38656 0 0 0
405 23 3 0.033922 16.1213 2.52257 3.43145 0 0 0
406 23 3 0.046089 14.2521 4.8947 3.82678 0 0 0
407 23 3 0.046089 15.4908 4.94655 2.48375 0 0 0
408 23 4 0.121889 13.9518 2.44049 2.08525 0 0 0
409 23 4 0.121889 12.1298 3.29241 1.06076 0 0 0
410 23 3 0.046089 12.6886 5.8957 0.361668 0 0 0
411 23 3 0.046089 12.8713 6.1717 2.02803 0 0 0
412 23 3 0.033922 10.4661 5.27804 0.601777 0 0 0
413 23 3 0.033922 10.4668 5.08648 2.36053 0 0 0
414 23 3 0.033922 10.5933 6.71418 1.67881 0 0 0
415 24 1 -0.091211 6.95455 14.2854 1.22462 0 0 0
416 24 1 -0.050311 6.80635 13.9913 2.70346 0 0 0
417 24 2 -0.174311 7.88403 14.47 3.59007 0 0 0
418 24 2 -0.174311 9.08458 13.853 3.72086 0 0 0
419 24 1 -0.050311 9.52958 12.5437 3.15894 0 0 0
420 24 1 -0.091211 9.33448 11.4429 4.19386 0 0 0
421 24 3 0.033922 6.3872 15.1998 1.02811 0 0 0
422 24 3 0.033922 6.51314 13.4788 0.631946 0 0 0
423 24 3 0.033922 7.98561 14.3749 0.870339 0 0 0
424 24 3 0.046089 5.86968 14.3586 3.13283 0 0 0
425 24 3 0.046089 6.75934 12.9012 2.78179 0 0 0
426 24 4 0.121889 7.70048 15.3082 4.25469 0 0 0
427 24 4 0.121889 9.88479 14.3184 4.28749 0 0 0
428 24 3 0.046089 10.6048 12.5621 2.95877 0 0 0
429 24 3 0.046089 8.9845 12.2334 2.26269 0 0 0
430 24 3 0.033922 8.25966 11.3025 4.34109 0 0 0
431 24 3 0.033922 9.61763 10.4996 3.71785 0 0 0
432 24 3 0.033922 9.85237 11.6949 5.12388 0 0 0
433 25 1 -0.091211 6.99889 3.70387 10.0622 0 0 0
434 25 1 -0.050311 5.78234 2.96463 10.6732 0 0 0
435 25 2 -0.174311 4.5365 3.37599 9.83894 0 0 0
436 25 2 -0.174311 3.6018 2.60315 9.17868 0 0 0
437 25 1 -0.050311 3.61529 1.07299 9.02064 0 0 0
438 25 1 -0.091211 3.33882 0.693395 7.56031 0 0 0
439 25 3 0.033922 7.13421 3.40861 9.01761 0 0 0
440 25 3 0.033922 7.93117 3.3928 10.5425 0 0 0
441 25 3 0.033922 6.81869 4.78281 10.0577 0 0 0
442 25 3 0.046089 6.11554 1.9274 10.5744 0 0 0
443 25 3 0.046089 5.57803 3.233 11.7138 0 0 0
444 25 4 0.121889 4.44675 4.45367 9.74658 0 0 0
445 25 4 0.121889 2.77529 3.10654 8.68725 0 0 0
446 25 3 0.046089 2.93936 0.567856 9.71677 0 0 0
447 25 3 0.046089 4.62312 0.693259 9.21217 0 0 0
448 25 3 0.033922 4.01671 1.24208 6.89998 0 0 0
449 25 3 0.033922 3.39696 -0.389843 7.4195 0 0 0
450 25 3 0.033922 2.31631 0.964997 7.28225 0 0 0
451 26 1 -0.091211 3.26309 1.15194 14.5807 0 0 0
452 26 1 -0.050311 2.52102 2.45359 14.6028 0 0 0
453 26 2 -0.174311 1.27684 2.46763 13.8047 0 0 0
454 26 2 -0.174311 0.109484 3.06901 14.1253 0 0 0
455 26 1 -0.050311 -0.114273 3.85474 15.3964 0 0 0
456 26 1 -0.091211 39.6792 4.11581 15.5193 -1 0 0
457 26 3 0.033922 2.59245 0.410631 15.0249 0 0 0
458 26 3 0.033922 4.13689 1.19601 15.2374 0 0 0
459 26 3 0.033922 3.47771 0.759249 13.5826 0 0 0
460 26 3 0.046089 2.40432 2.79377 15.6359 0 0 0
461 26 3 0.046089 3.13931 3.23101 14.1446 0 0 0
462 26 4 0.121889 1.41844 2.0846 12.799 0 0 0
463 26 4 0.121889 -0.682405 2.77451 13.444 0 0 0
464 26 3 0.046089 0.456565 4.78252 15.2966 0 0 0
465 26 3 0.046089 0.282062 3.39343 16.3057 0 0 0
466 26 3 0.033922 39.5267 4.86127 16.3052 -1 0 0
467 26 3 0.033922 39.1871 4.46979 14.6088 -1 0 0
468 26 3 0.033922 39.1546 3.22458 15.8757 -1 0 0
469 27 1 -0.091211 14.7778 11.701 16.5501 0 0 0
470 27 1 -0.050311 16.1283 11.0989 16.3811 0 0 0
471 27 2 -0.174311 16.2742 10.3606 15.0682 0 0 0
472 27 2 -0.174311 17.4025 10.3678 14.3654 0 0 0
473 27 1 -0.050311 18.6334 11.1787 14.6988 0 0 0
474 27 1 -0.091211 19.7037 11.0631 13.5245 0 0 0
475 27 3 0.033922 14.8031 12.1357 17.5536 0 0 0
476 27 3 0.033922 14.0015 10.9309 16.5214 0 0 0
477 27 3 0.033922 14.6224 12.4341 15.7532 0 0 0
478 27 3 0.046089 16.9201 11.812 16.6282 0 0 0
479 27 3 0.046089 16.1031 10.4057 17.227 0 0 0
480 27 4 0.121889 15.4996 9.74404 14.6234 0 0 0
481 27 4 0.121889 17.32 9.77789 13.4581 0 0 0
482 27 3 0.046089 19.0618 10.766 15.6169 0 0 0
483 27 3 0.046089 18.3966 12.2462 14.7335 0 0 0
484 27 3 0.033922 19.3422 11.3028 12.5202 0 0 0
485 27 3 0.033922 20.6417 11.5945 13.7095 0 0 0
486 27 3 0.033922 20.0804 10.0365 13.4978 0 0 0
487 28 1 -0.091211 5.05214 9.61097 1.69553 0 0 0
488 28 1 -0.050311 5.28067 8.83548 0.415412 0 0 0
489 28 2 -0.174311 5.03253 7.36287 0.639639 0 0 0
490 28 2 -0.174311 5.5722 6.21964 0.00943445 0 0 0
491 28 1 -0.050311 6.59427 6.13466 -1.14405 0 0 0
492 28 1 -0.091211 6.11302 6.91105 22.6805 0 0 -1
493 28 3 0.033922 5.41717 10.6348 1.57211 0 0 0
494 28 3 0.033922 5.50647 9.10225 2.55076 0 0 0
495 28 3 0.033922 3.98083 9.60999 1.91667 0 0 0
496 28 3 0.046089 4.60098 9.19611 -0.362144 0 0 0
497 28 3 0.046089 6.30527 8.97097 0.0570046 0 0 0
498 28 4 0.121889 4.43266 7.22883 1.53418 0 0 0
499 28 4 0.121889 5.43763 5.20366 0.366751 0 0 0
500 28 3 0.046089 6.76321 5.1225 -1.523 0 0 0
501 28 3 0.046089 7.52366 6.53618 -0.729775 0 0 0
502 28 3 0.033922 6.7786 6.85725 21.8141 0 0 -1
503 28 3 0.033922 5.19018 6.4323 22.3403 0 0 -1
504 28 3 0.033922 6.00077 7.969 22.935 0 0 -1
505 29 1 -0.091211 5.01527 8.46488 11.9304 0 0 0
506 29 1 -0.050311 6.38046 8.34859 12.495 0 0 0
507 29 2 -0.174311 6.78083 6.90623 12.7661 0 0 0
508 29 2 -0.174311 7.84819 6.69528 13.5757 0 0 0
509 29 1 -0.050311 8.61817 7.73758 14.3048 0 0 0
510 29 1 -0.091211 9.18315 7.00591 15.5514 0 0 0
511 29 3 0.033922 4.27407 8.03307 12.6092 0 0 0
512 29 3 0.033922 4.9095 7.86027 11.0249 0 0 0
513 29 3 0.033922 4.79619 9.52026 11.7439 0 0 0
514 29 3 0.046089 7.07717 8.80456 11.7856 0 0 0
515 29 3 0.046089 6.38912 9.018 13.3601 0 0 0
516 29 4 0.121889 6.31014 6.06624 12.2652 0 0 0
517 29 4 0.121889 8.11467 5.64314 13.5749 0 0 0
518 29 3 0.046089 7.91191 8.52776 14.5758 0 0 0
519 29 3 0.046089 9.4671 8.10677 13.722 0 0 0
520 29 3 0.033922 9.8888 6.31672 15.0784 0 0 0
521 29 3 0.033922 9.57537 7.71949 16.2818 0 0 0
522 29 3 0.033922 8.45827 6.44315 16.1467 0 0 0
523 30 1 -0.091211 15.7711 8.1645 19.8806 0 0 0
524 30 1 -0.050311 15.1508 8.9967 21.0014 0 0 0
525 30 2 -0.174311 15.5917 10.3934 20.9683 0 0 0
526 30 2 -0.174311 14.7955 11.5343 21.0343 0 0 0
527 30 1 -0.050311 13.3381 11.592 21.2468 0 0 0
528 30 1 -0.091211 12.978 12.6 22.3568 0 0 0
529 30 3 0.033922 15.514 8.51364 18.8763 0 0 0
530 30 3 0.033922 15.5485 7.09615 19.8052 0 0 0
531 30 3 0.033922 16.8573 8.25693 19.9714 0 0 0
532 30 3 0.046089 14.0667 8.86115 20.9467 0 0 0
533 30 3 0.046089 15.4088 8.61 21.9916 0 0 0
534 30 4 0.121889 16.6583 10.5927 20.993 0 0 0
535 30 4 0.121889 15.1673 12.5457 20.9044 0 0 0
536 30 3 0.046089 12.9335 10.6123 21.5175 0 0 0
537 30 3 0.046089 12.8568 11.861 20.302 0 0 0
538 30 3 0.033922 13.3184 13.6349 22.2578 0 0 0
539 30 3 0.033922 11.8849 12.5951 22.3988 0 0 0
540 30 3 0.033922 13.4127 12.256 -1.68296 0 0 1
541 31 1 -0.091211 16.9942 19.9078 18.4558 0 0 0
542 31 1 -0.050311 16.4683 18.6563 17.9235 0 0 0
543 31 2 -0.174311 16.9446 18.545 16.4801 0 0 0
544 31 2 -0.174311 16.619 17.4499 15.7598 0 0 0
545 31 1 -0.050311 15.8593 16.1985 16.2129 0 0 0
546 31 1 -0.091211 16.6468 14.9736 15.7192 0 0 0
547 31 3 0.033922 16.5322 20.7203 17.8875 0 0 0
548 31 3 0.033922 18.0727 19.9803 18.2877 0 0 0
549 31 3 0.033922 16.751 19.9659 19.5208 0 0 0
550 31 3 0.046089 17.0141 17.982 18.5899 0 0 0
551 31 3 0.046089 15.4123 18.4803 18.1482 0 0 0
552 31 4 0.121889 17.6 19.3364 16.1305 0 0 0
553 31 4 0.121889 16.9977 17.4969 14.7437 0 0 0
554 31 3 0.046089 14.8516 16.2568 15.7914 0 0 0
555 31 3 0.046089 15.842 16.0555 17.2973 0 0 0
556 31 3 0.033922 16.32 14.733 14.7034 0 0 0
557 31 3 0.033922 17.7323 15.1082 15.7337 0 0 0
558 31 3 0.033922 16.3285 14.1607 16.3784 0 0 0
559 32 1 -0.091211 17.7235 15.4235 9.99026 0 0 0
560 32 1 -0.050311 18.5157 16.5866 9.45116 0 0 0
561 32 2 -0.174311 19.0398 16.1247 8.13836 0 0 0
562 32 2 -0.174311 19.2321 16.9767 7.06456 0 0 0
563 32 1 -0.050311 19.1612 18.4407 7.16668 0 0 0
564 32 1 -0.091211 20.5375 18.9696 7.53778 0 0 0
565 32 3 0.033922 18.3445 14.565 10.2621 0 0 0
566 32 3 0.033922 16.9846 15.1252 9.24075 0 0 0
567 32 3 0.033922 17.1658 15.6738 10.8974 0 0 0
568 32 3 0.046089 17.8286 17.4347 9.3799 0 0 0
569 32 3 0.046089 19.3184 16.8845 10.1319 0 0 0
570 32 4 0.121889 19.3465 15.0968 7.97243 0 0 0
571 32 4 0.121889 19.4049 16.5963 6.06279 0 0 0
572 32 3 0.046089 18.5405 18.7558 8.01052 0 0 0
573 32 3 0.046089 18.7834 18.9377 6.26839 0 0 0
574 32 3 0.033922 20.523 20.0373 7.77526 0 0 0
575 32 3 0.033922 20.961 18.4946 8.42754 0 0 0
576 32 3 0.033922 21.293 18.851 6.75562 0 0 0
577 33 1 -0.091211 15.1401 16.6752 7.67292 0 0 0
578 33 1 -0.050311 13.7903 17.4264 7.55837 0 0 0
579 33 2 -0.174311 12.8929 17.1434 8.6981 0 0 0
580 33 2 -0.174311 12.0748 18.0123 9.40581 0 0 0
581 33 1 -0.050311 11.7724 19.424 8.91364 0 0 0
582 33 1 -0.091211 12.6047 20.3708 9.64668 0 0 0
583 33 3 0.033922 15.0499 15.5972 7.83502 0 0 0
584 33 3 0.033922 15.729 17.1261 8.47698 0 0 0
585 33 3 0.033922 15.664 16.8546 6.72956 0 0 0
586 33 3 0.046089 14.0025 18.499 7.52471 0 0 0
587 33 3 0.046089 13.2797 17.1412 6.63391 0 0 0
588 33 4 0.121889 12.844 16.1013 8.99759 0 0 0
589 33 4 0.121889 11.431 17.6435 10.198 0 0 0
590 33 3 0.046089 10.7177 19.6436 9.10358 0 0 0
591 33 3 0.046089 11.9067 19.5331 7.8335 0 0 0
592 33 3 0.033922 13.6406 20.064 9.47558 0 0 0
593 33 3 0.033922 12.5354 21.4051 9.29746 0 0 0
594 33 3 0.033922 12.4319 20.4187 10.7258 0 0 0
595 34 1 -0.091211 20.4908 15.6475 12.976 0 0 0
596 34 1 -0.050311 20.7425 16.1675 14.4072 0 0 0
597 34 2 -0.174311 21.4826 15.1681 15.196 0 0 0
598 34 2 -0.174311 22.4107 15.3713 16.1579 0 0 0
599 34 1 -0.050311 23.0508 16.7491 16.2984 0 0 0
600 34 1 -0.091211 23.5884 16.8905 17.6644 0 0 0
601 34 3 0.033922 21.2855 14.9993 12.5953 0 0 0
602 34 3 0.033922 20.3939 16.5135 12.3147 0 0 0
603 34 3 0.033922 19.5421 15.1064 12.9141 0 0 0
604 34 3 0.046089 21.3781 17.0575 14.3837 0 0 0
605 34 3 0.046089 19.8668 16.5258 14.9563 0 0 0
606 34 4 0.121889 20.9894 14.2014 15.1848 0 0 0
607 34 4 0.121889 22.7391 14.48 16.683 0 0 0
608 34 3 0.046089 22.1824 17.4139 16.2722 0 0 0
609 34 3 0.046089 23.8255 16.8621 15.5344 0 0 0
610 34 3 0.033922 24.4699 16.2743 17.8641 0 0 0
611 34 3 0.033922 23.9923 17.9 17.7843 0 0 0
612 34 3 0.033922 22.7869 16.678 18.3779 0 0 0
613 35 1 -0.091211 5.77671 11.9501 22.2445 0 0 0
614 35 1 -0.050311 4.7278 11.2907 21.4439 0 0 0
615 35 2 -0.174311 4.16362 12.2382 20.3805 0 0 0
616 35 2 -0.174311 3.13518 11.9674 19.5597 0 0 0
617 35 1 -0.050311 2.2783 10.71 19.5431 0 0 0
618 35 1 -0.091211 1.46884 10.5327 18.2967 0 0 0
619 35 3 0.033922 6.00642 11.1996 23.0065 0 0 0