ITEM: TIMESTEP
82600
ITEM: NUMBER OF ATOMS
1800
ITEM: BOX BOUNDS pp pp pp
-4.8971013857778551e+00 4.3705116885776775e+01
1.2902134359352164e+00 2.0318442064065245e+01
-9.5384946979283391e-01 2.2207582969792298e+01
ITEM: ATOMS id mol type q x y z ix iy iz
1 1 1 -0.091211 6.15285 11.1603 16.161 0 -1 0
2 1 1 -0.050311 5.45874 11.7384 14.9085 0 -1 0
3 1 2 -0.174311 5.56188 10.8066 13.75 0 -1 0
4 1 2 -0.174311 5.37729 11.1539 12.4447 0 -1 0
5 1 1 -0.050311 4.98373 12.586 12.0318 0 -1 0
6 1 1 -0.091211 4.44207 12.4891 10.5764 0 -1 0
7 1 3 0.033922 5.65194 10.245 16.4897 0 -1 0
8 1 3 0.033922 6.07383 11.9315 16.9328 0 -1 0
9 1 3 0.033922 7.17453 10.8846 15.8839 0 -1 0
10 1 3 0.046089 4.40045 11.8916 15.1391 0 -1 0
11 1 3 0.046089 5.89288 12.7137 14.6697 0 -1 0
12 1 4 0.121889 5.8365 9.78809 14.0056 0 -1 0
13 1 4 0.121889 5.49662 10.4279 11.6467 0 -1 0
14 1 3 0.046089 5.84264 13.2597 12.1027 0 -1 0
15 1 3 0.046089 4.34858 13.0999 12.7592 0 -1 0
16 1 3 0.033922 3.77036 13.3414 10.4384 0 -1 0
17 1 3 0.033922 5.26195 12.5079 9.85251 0 -1 0
18 1 3 0.033922 3.83643 11.5924 10.4162 0 -1 0
19 2 1 -0.091211 4.20769 5.35143 8.25062 0 0 0
20 2 1 -0.050311 5.16724 4.2596 8.63691 0 0 0
21 2 2 -0.174311 6.56506 4.47546 8.02916 0 0 0
22 2 2 -0.174311 7.70173 4.79801 8.72332 0 0 0
23 2 1 -0.050311 7.85848 4.97685 10.1946 0 0 0
24 2 1 -0.091211 8.91749 4.16262 10.8892 0 0 0
25 2 3 0.033922 4.38688 5.53095 7.18652 0 0 0
26 2 3 0.033922 4.26466 6.32621 8.74382 0 0 0
27 2 3 0.033922 3.2058 4.97316 8.47362 0 0 0
28 2 3 0.046089 5.2157 4.31695 9.72824 0 0 0
29 2 3 0.046089 4.88551 3.25324 8.31354 0 0 0
30 2 4 0.121889 6.53405 4.48837 6.9443 0 0 0
31 2 4 0.121889 8.62696 4.86444 8.15982 0 0 0
32 2 3 0.046089 6.89859 4.86084 10.7062 0 0 0
33 2 3 0.046089 8.11796 6.02815 10.3499 0 0 0
34 2 3 0.033922 8.81822 4.20832 11.9776 0 0 0
35 2 3 0.033922 8.87565 3.093 10.6637 0 0 0
36 2 3 0.033922 9.93093 4.49109 10.6409 0 0 0
37 3 1 -0.091211 1.62292 3.10748 11.6229 0 0 0
38 3 1 -0.050311 2.64658 2.25128 10.9197 0 0 0
39 3 2 -0.174311 2.13408 19.8536 10.8696 0 -1 0
40 3 2 -0.174311 2.84223 18.7109 10.9331 0 -1 0
41 3 1 -0.050311 4.35946 18.6532 11.1506 0 -1 0
42 3 1 -0.091211 5.07666 19.292 9.97997 0 -1 0
43 3 3 0.033922 0.706407 2.9058 11.0608 0 0 0
44 3 3 0.033922 1.8611 4.1746 11.5881 0 0 0
45 3 3 0.033922 1.46609 2.86603 12.6782 0 0 0
46 3 3 0.046089 2.76736 2.52797 9.86825 0 0 0
47 3 3 0.046089 3.61296 2.29448 11.4304 0 0 0
48 3 4 0.121889 1.10709 19.659 10.5773 0 -1 0
49 3 4 0.121889 2.28946 17.8009 10.7224 0 -1 0
50 3 3 0.046089 4.59753 17.5855 11.1521 0 -1 0
51 3 3 0.046089 4.61502 19.0582 12.1341 0 -1 0
52 3 3 0.033922 6.16198 19.2545 10.1113 0 -1 0
53 3 3 0.033922 4.92081 18.7274 9.05606 0 -1 0
54 3 3 0.033922 4.78112 20.3386 9.8618 0 -1 0
55 4 1 -0.091211 -2.92381 17.6468 13.6418 0 -1 0
56 4 1 -0.050311 -1.62849 17.083 14.264 0 -1 0
57 4 2 -0.174311 -1.30345 17.9179 15.498 0 -1 0
58 4 2 -0.174311 -0.0488955 18.5373 15.6711 0 -1 0
59 4 1 -0.050311 1.06327 18.3911 14.7254 0 -1 0
60 4 1 -0.091211 2.19885 19.207 15.2231 0 -1 0
61 4 3 0.033922 -3.71042 17.7672 14.3924 0 -1 0
62 4 3 0.033922 -3.2896 16.8403 12.9996 0 -1 0
63 4 3 0.033922 -2.84942 18.5571 13.0396 0 -1 0
64 4 3 0.046089 -1.63953 16.0168 14.5086 0 -1 0
65 4 3 0.046089 -0.89276 17.262 13.4745 0 -1 0
66 4 4 0.121889 -2.10266 18.0815 16.2139 0 -1 0
67 4 4 0.121889 0.13855 18.9839 16.6425 0 -1 0
68 4 3 0.046089 0.734077 18.7416 13.7428 0 -1 0
69 4 3 0.046089 1.36196 17.3389 14.7431 0 -1 0
70 4 3 0.033922 2.48252 18.9067 16.236 0 -1 0
71 4 3 0.033922 3.01633 19.0229 14.5199 0 -1 0
72 4 3 0.033922 1.9507 20.2719 15.1888 0 -1 0
73 5 1 -0.091211 -3.12838 6.83955 9.76743 0 0 0
74 5 1 -0.050311 -4.04165 7.72439 8.92105 0 0 0
75 5 2 -0.174311 43.4597 8.15509 9.85613 -1 0 0
76 5 2 -0.174311 42.9001 9.46242 9.84713 -1 0 0
77 5 1 -0.050311 43.0696 10.4562 8.70061 -1 0 0
78 5 1 -0.091211 41.6943 10.7004 8.06654 -1 0 0
79 5 3 0.033922 -2.52332 7.41413 10.4748 0 0 0
80 5 3 0.033922 -2.40479 6.32917 9.12511 0 0 0
81 5 3 0.033922 -3.65569 6.10753 10.3861 0 0 0
82 5 3 0.046089 -3.46873 8.56628 8.52149 0 0 0
83 5 3 0.046089 -4.45221 7.16172 8.07754 0 0 0
84 5 4 0.121889 43.1197 7.38025 10.5359 -1 0 0
85 5 4 0.121889 42.284 9.73023 10.6996 -1 0 0
86 5 3 0.046089 -4.83827 10.0852 7.94114 0 0 0
87 5 3 0.046089 43.4276 11.3843 9.15583 -1 0 0
88 5 3 0.033922 41.0762 11.2197 8.80475 -1 0 0
89 5 3 0.033922 41.8495 11.2362 7.12551 -1 0 0
90 5 3 0.033922 41.1491 9.77798 7.84635 -1 0 0
91 6 1 -0.091211 8.58282 6.52466 -0.0313727 0 0 1
92 6 1 -0.050311 7.80471 5.23291 -0.188324 0 0 1
93 6 2 -0.174311 6.34894 5.53363 -0.364572 0 0 1
94 6 2 -0.174311 5.4297 4.59164 -0.78614 0 0 1
95 6 1 -0.050311 5.71928 3.29707 21.6938 0 0 0
96 6 1 -0.091211 4.7753 2.96167 20.5609 0 0 0
97 6 3 0.033922 9.64305 6.35238 0.175575 0 0 1
98 6 3 0.033922 8.06722 7.1912 0.666143 0 0 1
99 6 3 0.033922 8.49419 7.09734 -0.959193 0 0 1
100 6 3 0.046089 8.15763 4.7115 22.0785 0 0 0
101 6 3 0.046089 7.80112 4.51678 0.638611 0 0 1
102 6 4 0.121889 5.90386 6.43445 0.045878 0 0 1
103 6 4 0.121889 4.38159 4.87118 -0.822084 0 0 1
104 6 3 0.046089 5.49515 2.59837 -0.656336 0 0 1
105 6 3 0.046089 6.78213 3.15534 21.4773 0 0 0
106 6 3 0.033922 4.92133 1.93714 20.2063 0 0 0
107 6 3 0.033922 3.73183 3.06599 20.8721 0 0 0
108 6 3 0.033922 5.00852 3.67296 19.7632 0 0 0
109 7 1 -0.091211 32.181 3.38405 20.2768 -1 1 -1
110 7 1 -0.050311 31.1276 2.84409 19.1945 -1 1 -1
111 7 2 -0.174311 30.6331 4.09936 18.5136 -1 1 -1
112 7 2 -0.174311 30.6888 4.44042 17.1538 -1 1 -1
113 7 1 -0.050311 31.1417 3.54981 15.9851 -1 1 -1
114 7 1 -0.091211 30.5074 4.01001 14.6516 -1 1 -1
115 7 3 0.033922 31.6311 4.03074 20.9667 -1 1 -1
116 7 3 0.033922 33.0396 3.83289 19.7688 -1 1 -1
117 7 3 0.033922 32.5525 2.47209 20.7532 -1 1 -1
118 7 3 0.046089 31.6386 2.19831 18.4744 -1 1 -1
119 7 3 0.046089 30.3083 2.36997 19.7427 -1 1 -1
120 7 4 0.121889 30.4387 4.87215 19.2505 -1 1 -1
121 7 4 0.121889 30.341 5.43886 16.9085 -1 1 -1
122 7 3 0.046089 30.7462 2.5693 16.2658 -1 1 -1
123 7 3 0.046089 32.2248 3.47681 15.85 -1 1 -1
124 7 3 0.033922 30.7965 5.06007 14.5494 -1 1 -1
125 7 3 0.033922 30.859 3.38753 13.8236 -1 1 -1
126 7 3 0.033922 29.4188 3.92104 14.7123 -1 1 -1
127 8 1 -0.091211 -2.4947 5.51824 0.92066 0 0 1
128 8 1 -0.050311 -3.62583 6.51176 0.918954 0 0 1
129 8 2 -0.174311 -4.30521 6.36136 -0.420553 0 0 1
130 8 2 -0.174311 42.9785 6.53327 -0.546376 -1 0 1
131 8 1 -0.050311 42.1502 6.88209 0.641714 -1 0 1
132 8 1 -0.091211 40.7544 7.2468 0.119491 -1 0 1
133 8 3 0.033922 -1.82215 5.67225 0.0717874 0 0 1
134 8 3 0.033922 -2.9537 4.52879 0.837031 0 0 1
135 8 3 0.033922 -1.89768 5.63429 1.82991 0 0 1
136 8 3 0.046089 -4.35911 6.30985 1.70518 0 0 1
137 8 3 0.046089 -3.24513 7.53432 0.99717 0 0 1
138 8 4 0.121889 -3.69055 6.27941 21.8501 0 0 0
139 8 4 0.121889 42.4847 6.35899 21.6644 -1 0 0
140 8 3 0.046089 42.4664 7.76275 1.2084 -1 0 1
141 8 3 0.046089 42.1307 6.09038 1.39636 -1 0 1
142 8 3 0.033922 40.268 7.74038 0.965947 -1 0 1
143 8 3 0.033922 40.8271 7.97485 -0.693725 -1 0 1
144 8 3 0.033922 40.2242 6.36912 -0.261647 -1 0 1
145 9 1 -0.091211 35.9438 6.96323 20.1818 -1 1 0
146 9 1 -0.050311 37.0384 6.7752 21.2115 -1 1 0
147 9 2 -0.174311 37.3744 8.20952 21.6208 -1 1 0
148 9 2 -0.174311 37.082 8.74176 -0.282402 -1 1 1
149 9 1 -0.050311 36.2486 8.09416 0.841359 -1 1 1
150 9 1 -0.091211 37.1589 7.91038 2.06557 -1 1 1
151 9 3 0.033922 35.0027 7.31989 20.6105 -1 1 0
152 9 3 0.033922 35.7545 6.05576 19.601 -1 1 0
153 9 3 0.033922 36.31 7.66444 19.4263 -1 1 0
154 9 3 0.046089 36.7429 6.12672 22.0414 -1 1 0
155 9 3 0.046089 38.0047 6.37906 20.886 -1 1 0
156 9 4 0.121889 37.9561 8.82861 20.9452 -1 1 0
157 9 4 0.121889 37.4813 9.74635 -0.185227 -1 1 1
158 9 3 0.046089 35.6943 7.19415 0.559501 -1 1 1
159 9 3 0.046089 35.4974 8.80149 1.20469 -1 1 1
160 9 3 0.033922 37.6339 8.83921 2.3947 -1 1 1
161 9 3 0.033922 36.5947 7.41958 2.86398 -1 1 1
162 9 3 0.033922 38.0122 7.32229 1.71549 -1 1 1
163 10 1 -0.091211 8.27497 9.46654 6.47518 0 0 1
164 10 1 -0.050311 8.30557 8.02299 5.93396 0 0 1
165 10 2 -0.174311 9.17827 7.96022 4.68024 0 0 1
166 10 2 -0.174311 9.73053 6.84803 4.12755 0 0 1
167 10 1 -0.050311 9.57928 5.51265 4.69156 0 0 1
168 10 1 -0.091211 10.6859 4.64434 4.19492 0 0 1
169 10 3 0.033922 9.23086 9.73756 6.93281 0 0 1
170 10 3 0.033922 7.42878 9.47604 7.16835 0 0 1
171 10 3 0.033922 8.02079 10.1834 5.68897 0 0 1
172 10 3 0.046089 8.70667 7.45791 6.78041 0 0 1
173 10 3 0.046089 7.29009 7.74626 5.63595 0 0 1
174 10 4 0.121889 9.26983 8.79845 3.99683 0 0 1
175 10 4 0.121889 10.2008 6.89063 3.15026 0 0 1
176 10 3 0.046089 8.59507 5.09575 4.45895 0 0 1
177 10 3 0.046089 9.60065 5.603 5.78153 0 0 1
178 10 3 0.033922 10.8284 4.66291 3.11048 0 0 1
179 10 3 0.033922 11.5823 5.03919 4.68189 0 0 1
180 10 3 0.033922 10.5879 3.61948 4.56471 0 0 1
181 11 1 -0.091211 -1.43086 14.1746 19.6425 0 0 0
182 11 1 -0.050311 -1.68799 15.4047 18.7444 0 0 0
183 11 2 -0.174311 -1.63317 16.6312 19.5392 0 0 0
184 11 2 -0.174311 -0.463444 17.2617 19.8299 0 0 0
185 11 1 -0.050311 0.913458 16.8071 19.3032 0 0 0
186 11 1 -0.091211 1.93404 16.8483 20.4532 0 0 0
187 11 3 0.033922 -1.36848 13.2797 19.0164 0 0 0
188 11 3 0.033922 -2.25477 14.102 20.3584 0 0 0
189 11 3 0.033922 -0.519464 14.2692 20.24 0 0 0
190 11 3 0.046089 -1.12388 15.5527 17.8189 0 0 0
191 11 3 0.046089 -2.70969 15.294 18.3696 0 0 0
192 11 4 0.121889 -2.59087 17.1285 19.6557 0 0 0
193 11 4 0.121889 -0.559278 18.2234 20.324 0 0 0
194 11 3 0.046089 1.19942 17.3671 18.4081 0 0 0
195 11 3 0.046089 0.928178 15.7728 18.9473 0 0 0
196 11 3 0.033922 1.65924 16.1363 21.237 0 0 0
197 11 3 0.033922 2.90615 16.6877 19.9781 0 0 0
198 11 3 0.033922 1.88034 17.8369 20.9185 0 0 0
199 12 1 -0.091211 2.65289 7.72621 12.6274 0 0 0
200 12 1 -0.050311 2.24014 7.97091 11.1647 0 0 0
201 12 2 -0.174311 1.09306 8.87981 11.1016 0 0 0
202 12 2 -0.174311 0.750757 9.69596 10.0599 0 0 0
203 12 1 -0.050311 1.34303 9.79886 8.64418 0 0 0
204 12 1 -0.091211 0.987878 8.62683 7.76411 0 0 0
205 12 3 0.033922 3.70533 7.43582 12.5593 0 0 0
206 12 3 0.033922 2.25309 6.9111 13.2377 0 0 0
207 12 3 0.033922 2.68178 8.61667 13.2621 0 0 0
208 12 3 0.046089 3.07056 8.43532 10.625 0 0 0
209 12 3 0.046089 2.06718 7.06441 10.5773 0 0 0
210 12 4 0.121889 0.452912 8.82225 11.9762 0 0 0
211 12 4 0.121889 -0.00971363 10.4196 10.3357 0 0 0
212 12 3 0.046089 2.43644 9.82724 8.62905 0 0 0
213 12 3 0.046089 0.964833 10.6556 8.07875 0 0 0
214 12 3 0.033922 1.74656 7.84147 7.82931 0 0 0
215 12 3 0.033922 0.0219602 8.25389 8.11698 0 0 0
216 12 3 0.033922 0.819255 8.92856 6.72624 0 0 0
217 13 1 -0.091211 -2.77451 14.3169 9.29309 0 0 1
218 13 1 -0.050311 -2.1763 15.4901 10.0045 0 0 1
219 13 2 -0.174311 -1.80446 15.0493 11.3942 0 0 1
220 13 2 -0.174311 -0.528616 14.8397 11.7551 0 0 1
221 13 1 -0.050311 0.721454 15.296 10.9977 0 0 1
222 13 1 -0.091211 1.96477 15.192 11.8532 0 0 1
223 13 3 0.033922 -1.96631 13.5906 9.16697 0 0 1
224 13 3 0.033922 -3.18114 14.6827 8.34572 0 0 1
225 13 3 0.033922 -3.55483 13.829 9.88446 0 0 1
226 13 3 0.046089 -1.21621 15.7584 9.55414 0 0 1
227 13 3 0.046089 -2.75322 16.4182 9.95526 0 0 1
228 13 4 0.121889 -2.547 14.7958 12.1441 0 0 1
229 13 4 0.121889 -0.41036 14.4589 12.7646 0 0 1
230 13 3 0.046089 0.665318 16.3672 10.783 0 0 1
231 13 3 0.046089 0.890231 14.7153 10.0861 0 0 1
232 13 3 0.033922 2.14924 14.1356 12.0691 0 0 1
233 13 3 0.033922 2.87198 15.5033 11.3272 0 0 1
234 13 3 0.033922 1.8816 15.6993 12.8189 0 0 1
235 14 1 -0.091211 13.242 10.3813 6.91745 0 0 0
236 14 1 -0.050311 12.5315 9.27395 6.09874 0 0 0
237 14 2 -0.174311 13.4015 7.96935 6.22681 0 0 0
238 14 2 -0.174311 13.985 7.27005 5.24726 0 0 0
239 14 1 -0.050311 14.1852 7.65798 3.7443 0 0 0
240 14 1 -0.091211 15.3728 7.13629 3.10014 0 0 0
241 14 3 0.033922 14.1944 10.5749 6.41531 0 0 0
242 14 3 0.033922 13.4967 10.0978 7.94284 0 0 0
243 14 3 0.033922 12.5862 11.2548 6.97713 0 0 0
244 14 3 0.046089 11.5245 9.08389 6.48127 0 0 0
245 14 3 0.046089 12.3109 9.68902 5.11097 0 0 0
246 14 4 0.121889 13.5151 7.62062 7.24835 0 0 0
247 14 4 0.121889 14.4291 6.33612 5.57671 0 0 0
248 14 3 0.046089 14.1224 8.73398 3.5573 0 0 0
249 14 3 0.046089 13.3069 7.36458 3.16196 0 0 0
250 14 3 0.033922 15.3397 7.33718 2.02534 0 0 0
251 14 3 0.033922 16.1788 7.63512 3.64623 0 0 0
252 14 3 0.033922 15.4338 6.05839 3.27658 0 0 0
253 15 1 -0.091211 3.63894 8.73576 21.4457 0 1 0
254 15 1 -0.050311 3.02684 7.56193 -0.974816 0 1 1
255 15 2 -0.174311 1.6818 7.96611 -0.44232 0 1 1
256 15 2 -0.174311 0.953173 7.2942 0.529478 0 1 1
257 15 1 -0.050311 1.35117 5.84863 0.96103 0 1 1
258 15 1 -0.091211 1.14398 5.46971 2.42639 0 1 1
259 15 3 0.033922 2.88056 9.1222 20.7585 0 1 0
260 15 3 0.033922 4.42247 8.41405 20.7534 0 1 0
261 15 3 0.033922 4.00233 9.46599 22.1746 0 1 0
262 15 3 0.046089 2.95482 6.68714 21.5337 0 1 0
263 15 3 0.046089 3.73283 7.24865 -0.200176 0 1 1
264 15 4 0.121889 1.31342 8.91796 -0.811572 0 1 1
265 15 4 0.121889 -0.00575849 7.5986 0.936635 0 1 1
266 15 3 0.046089 2.3909 5.61654 0.712702 0 1 1
267 15 3 0.046089 0.751618 5.22844 0.288308 0 1 1
268 15 3 0.033922 1.83982 6.03126 3.05655 0 1 1
269 15 3 0.033922 0.0932981 5.64439 2.67569 0 1 1
270 15 3 0.033922 1.40702 4.42489 2.61573 0 1 1
271 16 1 -0.091211 12.2765 4.65771 7.98309 0 1 0
272 16 1 -0.050311 13.3913 3.5595 7.7241 0 1 0
273 16 2 -0.174311 12.8596 2.46953 6.81882 0 1 0
274 16 2 -0.174311 13.3197 2.20287 5.57999 0 1 0
275 16 1 -0.050311 14.328 3.11215 4.96801 0 1 0
276 16 1 -0.091211 14.5661 2.81403 3.46622 0 1 0
277 16 3 0.033922 11.433 4.17105 8.48137 0 1 0
278 16 3 0.033922 11.9245 5.14212 7.0676 0 1 0
279 16 3 0.033922 12.7443 5.42849 8.60258 0 1 0
280 16 3 0.046089 14.3104 4.05119 7.39228 0 1 0
281 16 3 0.046089 13.6444 3.08673 8.67755 0 1 0
282 16 4 0.121889 12.1989 1.65363 7.09417 0 1 0
283 16 4 0.121889 12.7542 20.4393 5.09915 0 0 0
284 16 3 0.046089 15.3174 3.12909 5.43416 0 1 0
285 16 3 0.046089 13.8732 4.10244 5.0638 0 1 0
286 16 3 0.033922 13.6569 2.89833 2.8639 0 1 0
287 16 3 0.033922 15.3445 3.46349 3.05516 0 1 0
288 16 3 0.033922 14.8376 1.75512 3.42504 0 1 0
289 17 1 -0.091211 12.2121 8.28104 9.77964 0 0 0
290 17 1 -0.050311 11.0703 7.98329 10.7228 0 0 0
291 17 2 -0.174311 9.78537 8.42651 10.1839 0 0 0
292 17 2 -0.174311 9.24791 9.74864 10.1358 0 0 0
293 17 1 -0.050311 9.89396 10.9845 10.6636 0 0 0
294 17 1 -0.091211 9.37602 11.0934 12.1146 0 0 0
295 17 3 0.033922 13.1348 7.82992 10.1561 0 0 0
296 17 3 0.033922 12.4153 9.34998 9.66656 0 0 0
297 17 3 0.033922 12.0155 7.91135 8.76904 0 0 0
298 17 3 0.046089 11.033 6.89551 10.8326 0 0 0
299 17 3 0.046089 11.1906 8.51906 11.6689 0 0 0
300 17 4 0.121889 9.17226 7.70936 9.64736 0 0 0
301 17 4 0.121889 8.29225 9.88623 9.64007 0 0 0
302 17 3 0.046089 9.57712 11.9206 10.1946 0 0 0
303 17 3 0.046089 10.9798 10.8519 10.6684 0 0 0
304 17 3 0.033922 8.28259 11.0676 12.0962 0 0 0
305 17 3 0.033922 9.62507 10.2479 12.7625 0 0 0
306 17 3 0.033922 9.78594 11.9616 12.6388 0 0 0
307 18 1 -0.091211 33.5051 7.9478 16.3049 -1 0 1
308 18 1 -0.050311 34.6933 7.50912 15.4875 -1 0 1
309 18 2 -0.174311 34.2541 6.26318 14.7063 -1 0 1
310 18 2 -0.174311 34.7924 5.88309 13.5167 -1 0 1
311 18 1 -0.050311 36.0913 6.45687 12.9897 -1 0 1
312 18 1 -0.091211 36.8997 5.35245 12.5268 -1 0 1
313 18 3 0.033922 33.7852 8.82256 16.899 -1 0 1
314 18 3 0.033922 33.1089 7.25048 17.0488 -1 0 1
315 18 3 0.033922 32.6527 8.09193 15.6346 -1 0 1
316 18 3 0.046089 34.887 8.38901 14.8671 -1 0 1
317 18 3 0.046089 35.5538 7.28669 16.1252 -1 0 1
318 18 4 0.121889 33.3472 5.73897 14.9905 -1 0 1
319 18 4 0.121889 34.2667 5.16938 12.8904 -1 0 1
320 18 3 0.046089 36.7019 7.00441 13.7136 -1 0 1
321 18 3 0.046089 35.8632 7.1187 12.1491 -1 0 1
322 18 3 0.033922 36.9548 4.56067 13.2796 -1 0 1
323 18 3 0.033922 36.5019 4.82305 11.656 -1 0 1
324 18 3 0.033922 37.8782 5.73657 12.2243 -1 0 1
325 19 1 -0.091211 11.1594 10.8389 2.55461 0 0 0
326 19 1 -0.050311 9.88888 11.0448 1.70885 0 0 0
327 19 2 -0.174311 9.89397 10.2163 0.398485 0 0 0
328 19 2 -0.174311 8.86497 10.0468 -0.45599 0 0 0
329 19 1 -0.050311 7.49311 10.506 -0.178399 0 0 0
330 19 1 -0.091211 7.01503 11.4773 21.9322 0 0 -1
331 19 3 0.033922 11.1495 11.575 3.36374 0 0 0
332 19 3 0.033922 12.0488 11.1315 1.98887 0 0 0
333 19 3 0.033922 11.2316 9.78538 2.8402 0 0 0
334 19 3 0.046089 9.01247 10.8426 2.33145 0 0 0
335 19 3 0.046089 9.79403 12.0862 1.38761 0 0 0
336 19 4 0.121889 10.8464 9.91206 -0.0238238 0 0 0
337 19 4 0.121889 8.97911 9.45153 21.8051 0 0 -1
338 19 3 0.046089 7.3761 10.9338 0.821589 0 0 0
339 19 3 0.046089 6.73566 9.72017 -0.251939 0 0 0
340 19 3 0.033922 6.99874 11.0289 20.9346 0 0 -1
341 19 3 0.033922 6.0046 11.8078 -0.971546 0 0 0
342 19 3 0.033922 7.56494 12.4184 22.0248 0 0 -1
343 20 1 -0.091211 12.872 16.4751 6.35315 0 -1 0
344 20 1 -0.050311 11.9503 16.8792 5.15613 0 -1 0
345 20 2 -0.174311 12.8008 17.5 4.09025 0 -1 0
346 20 2 -0.174311 12.5466 18.5446 3.19382 0 -1 0
347 20 1 -0.050311 11.1669 19.1177 3.00699 0 -1 0
348 20 1 -0.091211 11.1376 1.26167 2.06211 0 0 0
349 20 3 0.033922 13.2307 17.4004 6.81327 0 -1 0
350 20 3 0.033922 13.7423 15.9148 5.99934 0 -1 0
351 20 3 0.033922 12.2428 15.865 7.00789 0 -1 0
352 20 3 0.046089 11.4647 15.9729 4.78269 0 -1 0
353 20 3 0.046089 11.2012 17.6031 5.48974 0 -1 0
354 20 4 0.121889 13.8687 17.3105 4.12908 0 -1 0
355 20 4 0.121889 13.3587 18.965 2.60916 0 -1 0
356 20 3 0.046089 10.851 19.4157 4.01101 0 -1 0
357 20 3 0.046089 10.5109 18.3269 2.63171 0 -1 0
358 20 3 0.033922 11.4776 2.23038 2.43982 0 0 0
359 20 3 0.033922 11.6636 20.0333 1.13791 0 -1 0
360 20 3 0.033922 10.0949 1.44603 1.78744 0 0 0
361 21 1 -0.091211 -2.84833 20.1293 20.6809 0 -1 0
362 21 1 -0.050311 -2.7006 19.5078 22.0697 0 -1 0
363 21 2 -0.174311 -2.35579 1.61498 -0.103699 0 0 1
364 21 2 -0.174311 -2.51199 1.55344 1.2807 0 0 1
365 21 1 -0.050311 -3.0785 19.4911 2.05419 0 -1 1
366 21 1 -0.091211 -1.94412 18.8673 2.78415 0 -1 1
367 21 3 0.033922 -3.41592 2.03596 20.6583 0 0 0
368 21 3 0.033922 -3.37606 19.4369 20.0185 0 -1 0
369 21 3 0.033922 -1.83209 1.34044 20.3544 0 0 0
370 21 3 0.046089 -3.68794 19.1331 -0.806527 0 -1 1
371 21 3 0.046089 -1.88685 18.7768 22.0633 0 -1 0
372 21 4 0.121889 -1.87681 2.46202 -0.584483 0 0 1
373 21 4 0.121889 -2.32745 2.48854 1.79994 0 0 1
374 21 3 0.046089 -3.57002 18.7625 1.40284 0 -1 1
375 21 3 0.046089 -3.86588 19.9262 2.67654 0 -1 1
376 21 3 0.033922 -1.63534 19.6018 3.5337 0 -1 1
377 21 3 0.033922 -2.309 18.0283 3.3838 0 -1 1
378 21 3 0.033922 -1.12628 18.599 2.10904 0 -1 1
379 22 1 -0.091211 6.98999 16.7156 13.6599 0 -1 0
380 22 1 -0.050311 7.02691 16.3959 15.1101 0 -1 0
381 22 2 -0.174311 7.67896 15.0441 15.3335 0 -1 0
382 22 2 -0.174311 8.01763 14.5203 16.5688 0 -1 0
383 22 1 -0.050311 7.82918 15.2099 17.8884 0 -1 0
384 22 1 -0.091211 8.60526 14.362 18.9609 0 -1 0
385 22 3 0.033922 6.62107 17.7286 13.4744 0 -1 0
386 22 3 0.033922 6.32512 16.0727 13.0757 0 -1 0
387 22 3 0.033922 7.99445 16.7204 13.2267 0 -1 0
388 22 3 0.046089 7.64229 17.0876 15.6928 0 -1 0
389 22 3 0.046089 5.99867 16.4756 15.4747 0 -1 0
390 22 4 0.121889 7.86267 14.4449 14.4473 0 -1 0
391 22 4 0.121889 8.49291 13.5445 16.5671 0 -1 0
392 22 3 0.046089 6.76795 15.1286 18.1409 0 -1 0
393 22 3 0.046089 8.19369 16.2411 17.9102 0 -1 0
394 22 3 0.033922 8.18053 13.354 18.9765 0 -1 0
395 22 3 0.033922 9.65733 14.2126 18.7013 0 -1 0
396 22 3 0.033922 8.49333 14.8421 19.9375 0 -1 0
397 23 1 -0.091211 0.302238 9.28094 3.64121 0 0 0
398 23 1 -0.050311 -1.14981 8.91733 3.51013 0 0 0
399 23 2 -0.174311 -1.69395 8.19718 4.73908 0 0 0
400 23 2 -0.174311 -2.89119 8.56339 5.32461 0 0 0
401 23 1 -0.050311 -4.0334 9.32942 4.75808 0 0 0
402 23 1 -0.091211 43.3248 8.43715 4.62471 -1 0 0
403 23 3 0.033922 0.851366 8.46624 4.12223 0 0 0
404 23 3 0.033922 0.415522 10.2101 4.20741 0 0 0
405 23 3 0.033922 0.706321 9.4968 2.64785 0 0 0
406 23 3 0.046089 -1.75807 9.78391 3.23492 0 0 0
407 23 3 0.046089 -1.24932 8.22733 2.66712 0 0 0
408 23 4 0.121889 -1.14408 7.42656 5.26996 0 0 0
409 23 4 0.121889 -3.0417 7.96225 6.2157 0 0 0
410 23 3 0.046089 -3.8248 9.59615 3.7179 0 0 0
411 23 3 0.046089 -4.21736 10.2403 5.33524 0 0 0
412 23 3 0.033922 42.7814 8.38512 5.57265 -1 0 0
413 23 3 0.033922 42.6659 8.91816 3.89591 -1 0 0
414 23 3 0.033922 43.567 7.40754 4.34549 -1 0 0
415 24 1 -0.091211 0.862026 13.0158 5.22485 0 0 0
416 24 1 -0.050311 -0.0301989 14.0805 4.62541 0 0 0
417 24 2 -0.174311 0.535391 15.5232 4.85888 0 0 0
418 24 2 -0.174311 1.02708 16.2472 3.76463 0 0 0
419 24 1 -0.050311 1.1308 15.7711 2.34129 0 0 0
420 24 1 -0.091211 2.0106 16.6514 1.44553 0 0 0
421 24 3 0.033922 1.78211 13.0544 4.63445 0 0 0
422 24 3 0.033922 0.470948 11.9945 5.19983 0 0 0
423 24 3 0.033922 1.02638 13.2794 6.27374 0 0 0
424 24 3 0.046089 -0.105039 13.8992 3.54923 0 0 0
425 24 3 0.046089 -1.05138 14.0992 5.01711 0 0 0
426 24 4 0.121889 0.503715 16.0034 5.83172 0 0 0
427 24 4 0.121889 1.44947 17.2253 3.97218 0 0 0
428 24 3 0.046089 0.157219 15.845 1.84805 0 0 0
429 24 3 0.046089 1.46526 14.7299 2.36627 0 0 0
430 24 3 0.033922 1.72692 17.6896 1.64113 0 0 0
431 24 3 0.033922 3.08163 16.6074 1.6636 0 0 0
432 24 3 0.033922 1.83679 16.461 0.38242 0 0 0
433 25 1 -0.091211 2.6471 8.91772 17.0807 0 0 0
434 25 1 -0.050311 1.85545 7.88375 17.7368 0 0 0
435 25 2 -0.174311 1.75429 6.70393 16.952 0 0 0
436 25 2 -0.174311 1.50684 5.48234 17.48 0 0 0
437 25 1 -0.050311 1.41865 5.26368 18.9886 0 0 0
438 25 1 -0.091211 1.03349 3.80407 19.4244 0 0 0
439 25 3 0.033922 3.69343 8.59978 17.0543 0 0 0
440 25 3 0.033922 2.60543 9.88582 17.5884 0 0 0
441 25 3 0.033922 2.36703 9.1389 16.0467 0 0 0
442 25 3 0.046089 2.35314 7.67128 18.6875 0 0 0
443 25 3 0.046089 0.899724 8.35463 17.9847 0 0 0
444 25 4 0.121889 1.87492 6.74911 15.8743 0 0 0
445 25 4 0.121889 1.45461 4.61053 16.8356 0 0 0
446 25 3 0.046089 0.744333 5.95593 19.5011 0 0 0
447 25 3 0.046089 2.38831 5.57365 19.3889 0 0 0
448 25 3 0.033922 1.71175 3.11887 18.9076 0 0 0
449 25 3 0.033922 1.06046 3.71911 20.5147 0 0 0
450 25 3 0.033922 0.00196275 3.66013 19.09 0 0 0
451 26 1 -0.091211 -2.42513 15.9982 0.089724 0 -1 1
452 26 1 -0.050311 -3.11233 14.8368 0.749806 0 -1 1
453 26 2 -0.174311 -4.41241 15.3016 1.43003 0 -1 1
454 26 2 -0.174311 43.3043 14.3905 2.06436 -1 -1 1
455 26 1 -0.050311 43.5098 12.9373 2.2423 -1 -1 1
456 26 1 -0.091211 43.0575 12.0924 1.01776 -1 -1 1
457 26 3 0.033922 -2.84521 16.2639 -0.884728 0 -1 1
458 26 3 0.033922 -1.39831 15.7873 -0.222966 0 -1 1
459 26 3 0.033922 -2.51144 16.8728 0.741011 0 -1 1
460 26 3 0.046089 -3.43851 14.1886 -0.0687906 0 -1 1
461 26 3 0.046089 -2.51956 14.2253 1.43626 0 -1 1
462 26 4 0.121889 -4.69347 16.346 1.33933 0 -1 1
463 26 4 0.121889 42.3794 14.8518 2.39572 -1 -1 1
464 26 3 0.046089 42.9636 12.5871 3.123 -1 -1 1
465 26 3 0.046089 -4.03374 12.7177 2.40836 0 -1 1
466 26 3 0.033922 43.1828 11.0235 1.21397 -1 -1 1
467 26 3 0.033922 42.0358 12.3791 0.752089 -1 -1 1
468 26 3 0.033922 -5.04845 12.3 0.0652775 0 -1 1
469 27 1 -0.091211 16.7423 14.5607 17.2518 0 0 -1
470 27 1 -0.050311 17.5766 14.3189 18.4206 0 0 -1
471 27 2 -0.174311 17.0028 14.9544 19.6492 0 0 -1
472 27 2 -0.174311 16.9896 14.3561 20.8633 0 0 -1
473 27 1 -0.050311 17.5106 12.9734 21.3483 0 0 -1
474 27 1 -0.091211 18.4894 13.2742 -0.691033 0 0 0
475 27 3 0.033922 17.1757 14.245 16.2983 0 0 -1
476 27 3 0.033922 16.5845 15.6395 17.1625 0 0 -1
477 27 3 0.033922 15.7731 14.059 17.3255 0 0 -1
478 27 3 0.046089 17.7434 13.2392 18.4759 0 0 -1
479 27 3 0.046089 18.5504 14.796 18.2772 0 0 -1
480 27 4 0.121889 16.6351 15.9721 19.7335 0 0 -1
481 27 4 0.121889 16.5379 14.8874 21.695 0 0 -1
482 27 3 0.046089 18.0691 12.4192 20.5883 0 0 -1
483 27 3 0.046089 16.6438 12.3737 21.641 0 0 -1
484 27 3 0.033922 17.9226 13.7133 0.135139 0 0 0
485 27 3 0.033922 19.0953 12.4533 -0.296446 0 0 0
486 27 3 0.033922 19.3427 13.8764 22.1451 0 0 -1
487 28 1 -0.091211 5.07977 16.8357 22.0013 0 -1 -1
488 28 1 -0.050311 5.95808 16.7463 20.7496 0 -1 -1
489 28 2 -0.174311 6.97484 17.8462 20.5337 0 -1 -1
490 28 2 -0.174311 8.2831 17.8504 21.0119 0 -1 -1
491 28 1 -0.050311 8.85337 16.9667 22.1176 0 -1 -1
492 28 1 -0.091211 9.23176 17.7536 0.148943 0 -1 0
493 28 3 0.033922 4.41831 15.9664 22.0603 0 -1 -1
494 28 3 0.033922 4.47199 17.7422 22.076 0 -1 -1
495 28 3 0.033922 5.77116 16.7208 -0.320222 0 -1 0
496 28 3 0.046089 6.50741 15.8211 20.947 0 -1 -1
497 28 3 0.046089 5.37747 16.5836 19.8369 0 -1 -1
498 28 4 0.121889 6.70967 18.5148 19.7209 0 -1 -1
499 28 4 0.121889 8.91465 18.6533 20.6451 0 -1 -1
500 28 3 0.046089 9.74646 16.4471 21.7584 0 -1 -1
501 28 3 0.046089 8.17112 16.1765 -0.717082 0 -1 0
502 28 3 0.033922 9.67051 17.0762 0.887405 0 -1 0
503 28 3 0.033922 9.94936 18.5323 -0.125346 0 -1 0
504 28 3 0.033922 8.37906 18.2714 0.597703 0 -1 0
505 29 1 -0.091211 4.50026 10.6157 2.48498 0 0 0
506 29 1 -0.050311 4.46133 9.24035 3.30533 0 0 0
507 29 2 -0.174311 5.68577 8.4749 3.03692 0 0 0
508 29 2 -0.174311 5.85685 7.1365 3.05688 0 0 0
509 29 1 -0.050311 4.80176 6.15866 3.34568 0 0 0
510 29 1 -0.091211 5.43189 4.99242 4.21266 0 0 0
511 29 3 0.033922 4.26835 10.4021 1.4375 0 0 0
512 29 3 0.033922 5.48919 11.0833 2.47979 0 0 0
513 29 3 0.033922 3.76988 11.3322 2.87201 0 0 0
514 29 3 0.046089 4.56145 9.42678 4.37858 0 0 0
515 29 3 0.046089 3.60913 8.56492 3.18623 0 0 0
516 29 4 0.121889 6.47807 9.10752 2.64956 0 0 0
517 29 4 0.121889 6.88877 6.80016 3.05707 0 0 0
518 29 3 0.046089 4.36465 5.77163 2.42059 0 0 0
519 29 3 0.046089 3.95201 6.58437 3.88726 0 0 0
520 29 3 0.033922 6.05071 4.36357 3.56595 0 0 0
521 29 3 0.033922 6.05219 5.35492 5.03756 0 0 0
522 29 3 0.033922 4.62838 4.3882 4.64386 0 0 0
523 30 1 -0.091211 2.54754 19.5173 6.43329 0 0 1
524 30 1 -0.050311 2.69213 1.62273 5.41742 0 1 1
525 30 2 -0.174311 1.5934 1.58077 4.37911 0 1 1
526 30 2 -0.174311 1.69186 1.77159 3.02034 0 1 1
527 30 1 -0.050311 2.95651 2.15509 2.31085 0 1 1
528 30 1 -0.091211 3.54689 20.0024 1.5031 0 0 1
529 30 3 0.033922 2.61079 18.5388 5.94833 0 0 1
530 30 3 0.033922 1.55753 19.5043 6.89838 0 0 1
531 30 3 0.033922 3.36717 19.5696 7.15585 0 0 1
532 30 3 0.046089 2.74346 2.57158 5.95939 0 1 1
533 30 3 0.046089 3.67237 1.49469 4.94908 0 1 1
534 30 4 0.121889 0.656012 20.376 4.87409 0 0 1
535 30 4 0.121889 0.818672 1.59495 2.40039 0 1 1
536 30 3 0.046089 3.67564 2.52439 3.0478 0 1 1
537 30 3 0.046089 2.71206 2.92274 1.57083 0 1 1
538 30 3 0.033922 4.47476 20.2982 1.00493 0 0 1
539 30 3 0.033922 3.70745 19.2415 2.27246 0 0 1
540 30 3 0.033922 2.93516 19.549 0.717718 0 0 1
541 31 1 -0.091211 17.1711 17.9954 21.667 0 0 0
542 31 1 -0.050311 18.2982 18.3904 -0.483843 0 0 1
543 31 2 -0.174311 19.2607 19.482 22.1515 0 0 0
544 31 2 -0.174311 20.5634 19.3451 21.6637 0 0 0
545 31 1 -0.050311 21.2507 18.015 21.4323 0 0 0
546 31 1 -0.091211 22.0459 18.0915 20.1247 0 0 0
547 31 3 0.033922 16.5984 17.1574 22.0748 0 0 0
548 31 3 0.033922 17.6171 17.6257 20.739 0 0 0
549 31 3 0.033922 16.5581 18.8171 21.2852 0 0 0
550 31 3 0.046089 17.863 18.6537 0.484644 0 0 1
551 31 3 0.046089 18.863 17.4605 -0.369784 0 0 1
552 31 4 0.121889 18.9916 1.50393 22.2047 0 1 0
553 31 4 0.121889 21.1911 20.2201 21.5285 0 0 0
554 31 3 0.046089 20.4692 17.2751 21.2363 0 0 0
555 31 3 0.046089 21.8549 17.6613 -0.888602 0 0 1
556 31 3 0.033922 21.3733 17.9818 19.269 0 0 0
557 31 3 0.033922 22.5976 19.0343 20.0669 0 0 0
558 31 3 0.033922 22.8119 17.3115 20.1635 0 0 0
559 32 1 -0.091211 13.1069 2.14282 18.9082 0 1 -1
560 32 1 -0.050311 12.7335 3.18866 20.0284 0 1 -1
561 32 2 -0.174311 13.6131 2.94663 21.2302 0 1 -1
562 32 2 -0.174311 13.4542 3.58091 -0.714181 0 1 0
563 32 1 -0.050311 12.3289 4.4126 -0.254092 0 1 0
564 32 1 -0.091211 12.7333 5.47008 0.718145 0 1 0
565 32 3 0.033922 12.3964 2.38198 18.1117 0 1 -1
566 32 3 0.033922 12.9424 20.1553 19.2797 0 0 -1
567 32 3 0.033922 14.0977 2.20205 18.4483 0 1 -1
568 32 3 0.046089 12.9683 4.19142 19.6596 0 1 -1
569 32 3 0.046089 11.6666 3.09467 20.2507 0 1 -1
570 32 4 0.121889 14.4881 2.31246 21.1288 0 1 -1
571 32 4 0.121889 14.2027 3.45361 0.061404 0 1 0
572 32 3 0.046089 11.6096 3.75173 0.238279 0 1 0
573 32 3 0.046089 11.8243 4.85776 22.0449 0 1 -1
574 32 3 0.033922 11.8884 6.11614 0.973866 0 1 0
575 32 3 0.033922 13.1285 4.9375 1.58813 0 1 0
576 32 3 0.033922 13.4862 6.13833 0.290052 0 1 0
577 33 1 -0.091211 14.1562 11.0055 11.7488 0 0 0
578 33 1 -0.050311 14.9333 9.74212 12.1484 0 0 0
579 33 2 -0.174311 14.681 9.43941 13.578 0 0 0
580 33 2 -0.174311 15.5436 8.64055 14.3615 0 0 0
581 33 1 -0.050311 16.7766 7.80734 13.9253 0 0 0
582 33 1 -0.091211 18.0406 8.52052 14.4472 0 0 0
583 33 3 0.033922 14.5833 11.8841 12.2411 0 0 0
584 33 3 0.033922 13.1616 10.9194 12.196 0 0 0
585 33 3 0.033922 14.1538 11.0932 10.6584 0 0 0
586 33 3 0.046089 14.6945 8.87037 11.5322 0 0 0
587 33 3 0.046089 16.0114 9.91523 12.0826 0 0 0
588 33 4 0.121889 13.7689 9.78324 14.0554 0 0 0
589 33 4 0.121889 15.3746 8.57012 15.4313 0 0 0
590 33 3 0.046089 16.6692 7.66838 12.8456 0 0 0
591 33 3 0.046089 16.664 6.78901 14.3087 0 0 0
592 33 3 0.033922 18.0749 9.58705 14.2063 0 0 0
593 33 3 0.033922 18.2073 8.39305 15.5208 0 0 0
594 33 3 0.033922 18.8454 8.00696 13.9132 0 0 0
595 34 1 -0.091211 14.8101 18.8324 9.33398 0 0 0
596 34 1 -0.050311 15.4892 17.5679 9.9067 0 0 0
597 34 2 -0.174311 16.4598 17.9645 11.0221 0 0 0
598 34 2 -0.174311 17.1018 17.0959 11.9062 0 0 0
599 34 1 -0.050311 17.1454 15.5787 11.8339 0 0 0
600 34 1 -0.091211 16.4118 14.9136 12.9985 0 0 0
601 34 3 0.033922 15.4888 19.6848 9.43072 0 0 0
602 34 3 0.033922 13.9442 18.9604 9.99001 0 0 0
603 34 3 0.033922 14.4515 18.6635 8.31439 0 0 0
604 34 3 0.046089 14.7273 16.8994 10.3181 0 0 0
605 34 3 0.046089 16.1453 17.0399 9.20868 0 0 0
606 34 4 0.121889 16.5287 18.9999 11.3403 0 0 0
607 34 4 0.121889 17.7387 17.4018 12.7301 0 0 0
608 34 3 0.046089 18.1073 15.0801 11.6826 0 0 0
609 34 3 0.046089 16.5445 15.1331 11.0358 0 0 0
610 34 3 0.033922 16.9426 15.2637 13.8887 0 0 0
611 34 3 0.033922 15.394 15.3074 13.073 0 0 0
612 34 3 0.033922 16.5061 13.8241 12.9717 0 0 0
613 35 1 -0.091211 37.1576 16.3424 21.1579 -1 0 0