ITEM: TIMESTEP
73000
ITEM: NUMBER OF ATOMS
1800
ITEM: BOX BOUNDS pp pp pp
-4.4034651524933359e+00 4.3211480652492547e+01
6.7458762261774474e-01 2.0934067877382621e+01
-2.5345753180543262e-01 2.1507191031805029e+01
ITEM: ATOMS id mol type q x y z ix iy iz
1 1 1 -0.091211 3.14708 10.9421 16.8322 0 -1 0
2 1 1 -0.050311 1.75967 10.4097 16.4592 0 -1 0
3 1 2 -0.174311 0.808307 11.5332 16.5995 0 -1 0
4 1 2 -0.174311 0.432346 12.4627 15.657 0 -1 0
5 1 1 -0.050311 0.777032 12.405 14.1999 0 -1 0
6 1 1 -0.091211 1.30888 13.783 13.7577 0 -1 0
7 1 3 0.033922 3.3403 11.9619 16.4867 0 -1 0
8 1 3 0.033922 3.90788 10.2574 16.4462 0 -1 0
9 1 3 0.033922 3.16862 10.8812 17.9242 0 -1 0
10 1 3 0.046089 1.69122 9.93874 15.4743 0 -1 0
11 1 3 0.046089 1.41566 9.67091 17.1889 0 -1 0
12 1 4 0.121889 0.495432 11.75 17.616 0 -1 0
13 1 4 0.121889 -0.23984 13.2484 15.987 0 -1 0
14 1 3 0.046089 -0.13857 12.1689 13.6498 0 -1 0
15 1 3 0.046089 1.57567 11.6911 13.9783 0 -1 0
16 1 3 0.033922 1.69821 13.8754 12.7396 0 -1 0
17 1 3 0.033922 0.564714 14.5626 13.945 0 -1 0
18 1 3 0.033922 2.17834 14.117 14.3314 0 -1 0
19 2 1 -0.091211 7.08774 4.16631 9.69348 0 0 0
20 2 1 -0.050311 8.04927 5.2717 10.0685 0 0 0
21 2 2 -0.174311 9.41435 4.67902 10.2795 0 0 0
22 2 2 -0.174311 10.6262 5.187 9.85659 0 0 0
23 2 1 -0.050311 10.6959 6.49203 9.08101 0 0 0
24 2 1 -0.091211 12.1537 6.95423 9.06123 0 0 0
25 2 3 0.033922 7.05133 3.40541 10.4786 0 0 0
26 2 3 0.033922 7.4552 3.65498 8.79896 0 0 0
27 2 3 0.033922 6.09228 4.57431 9.49532 0 0 0
28 2 3 0.046089 8.00055 6.12592 9.38688 0 0 0
29 2 3 0.046089 7.67867 5.63436 11.0317 0 0 0
30 2 4 0.121889 9.39306 3.75508 10.8486 0 0 0
31 2 4 0.121889 11.4738 4.56994 10.1374 0 0 0
32 2 3 0.046089 10.032 7.28018 9.4481 0 0 0
33 2 3 0.046089 10.4143 6.31007 8.03973 0 0 0
34 2 3 0.033922 12.1941 7.86026 8.44959 0 0 0
35 2 3 0.033922 12.4444 7.20665 10.0851 0 0 0
36 2 3 0.033922 12.8153 6.18673 8.64921 0 0 0
37 3 1 -0.091211 -0.368221 3.05145 11.5439 0 0 0
38 3 1 -0.050311 0.871007 3.15913 12.4183 0 0 0
39 3 2 -0.174311 1.35692 1.79023 12.9717 0 0 0
40 3 2 -0.174311 2.6732 1.4493 13.0154 0 0 0
41 3 1 -0.050311 3.77781 2.3536 12.5404 0 0 0
42 3 1 -0.091211 5.08032 1.67214 12.7805 0 0 0
43 3 3 0.033922 -0.182485 2.32818 10.7445 0 0 0
44 3 3 0.033922 -0.614907 4.03337 11.1296 0 0 0
45 3 3 0.033922 -1.16298 2.74301 12.2294 0 0 0
46 3 3 0.046089 1.69078 3.56344 11.8174 0 0 0
47 3 3 0.046089 0.591858 3.81497 13.2482 0 0 0
48 3 4 0.121889 0.589325 1.10499 13.317 0 0 0
49 3 4 0.121889 2.85432 20.7582 13.5069 0 -1 0
50 3 3 0.046089 3.76181 3.33516 13.023 0 0 0
51 3 3 0.046089 3.64836 2.51799 11.4667 0 0 0
52 3 3 0.033922 5.90577 2.29156 12.4177 0 0 0
53 3 3 0.033922 5.19294 1.42327 13.8398 0 0 0
54 3 3 0.033922 5.09498 0.739464 12.2091 0 0 0
55 4 1 -0.091211 -0.142021 17.9959 14.3082 0 -1 0
56 4 1 -0.050311 -0.041427 18.8208 15.6007 0 -1 0
57 4 2 -0.174311 0.69174 18.0853 16.66 0 -1 0
58 4 2 -0.174311 0.921971 18.5869 17.8834 0 -1 0
59 4 1 -0.050311 0.454381 19.8898 18.3274 0 -1 0
60 4 1 -0.091211 1.02613 20.268 19.7446 0 -1 0
61 4 3 0.033922 0.872481 17.6439 14.0995 0 -1 0
62 4 3 0.033922 -0.374242 18.6451 13.459 0 -1 0
63 4 3 0.033922 -0.756933 17.0921 14.3491 0 -1 0
64 4 3 0.046089 0.538109 19.6827 15.2571 0 -1 0
65 4 3 0.046089 -0.986442 19.0971 16.0774 0 -1 0
66 4 4 0.121889 1.19367 17.1317 16.5308 0 -1 0
67 4 4 0.121889 1.65577 18.079 18.5012 0 -1 0
68 4 3 0.046089 -0.630181 19.7564 18.3783 0 -1 0
69 4 3 0.046089 0.676047 20.6676 17.5908 0 -1 0
70 4 3 0.033922 2.04382 20.6663 19.6969 0 -1 0
71 4 3 0.033922 0.42086 0.812956 20.1725 0 0 0
72 4 3 0.033922 1.05938 19.3752 20.3758 0 -1 0
73 5 1 -0.091211 41.7875 10.1964 9.07381 -1 0 0
74 5 1 -0.050311 41.3175 8.97199 9.86406 -1 0 0
75 5 2 -0.174311 39.9344 8.48118 9.40552 -1 0 0
76 5 2 -0.174311 39.6104 7.87184 8.26262 -1 0 0
77 5 1 -0.050311 40.598 7.41168 7.23484 -1 0 0
78 5 1 -0.091211 40.2401 6.0373 6.83443 -1 0 0
79 5 3 0.033922 42.8415 10.2548 9.36107 -1 0 0
80 5 3 0.033922 41.3059 11.1445 9.33031 -1 0 0
81 5 3 0.033922 41.6252 9.98605 8.01265 -1 0 0
82 5 3 0.046089 41.9953 8.12145 9.74664 -1 0 0
83 5 3 0.046089 41.2517 9.19728 10.9325 -1 0 0
84 5 4 0.121889 39.2019 8.75351 10.1587 -1 0 0
85 5 4 0.121889 38.5522 7.75458 8.0514 -1 0 0
86 5 3 0.046089 41.6205 7.49778 7.61409 -1 0 0
87 5 3 0.046089 40.5877 8.07889 6.36803 -1 0 0
88 5 3 0.033922 39.2694 6.02969 6.33018 -1 0 0
89 5 3 0.033922 41.0093 5.69543 6.13574 -1 0 0
90 5 3 0.033922 40.3666 5.45698 7.75305 -1 0 0
91 6 1 -0.091211 9.60244 2.75058 1.82443 0 0 1
92 6 1 -0.050311 8.87336 3.58596 0.789005 0 0 1
93 6 2 -0.174311 8.44186 2.66548 21.5188 0 0 0
94 6 2 -0.174311 7.32404 1.86072 -0.225425 0 0 1
95 6 1 -0.050311 6.43411 1.73535 0.990314 0 0 1
96 6 1 -0.091211 4.95417 1.61851 0.579516 0 0 1
97 6 3 0.033922 10.0547 3.26417 2.67785 0 0 1
98 6 3 0.033922 10.4463 2.23881 1.35254 0 0 1
99 6 3 0.033922 8.98972 1.92394 2.19577 0 0 1
100 6 3 0.046089 8.07418 4.15401 1.27406 0 0 1
101 6 3 0.046089 9.65811 4.20339 0.342232 0 0 1
102 6 4 0.121889 9.02995 2.80608 20.6175 0 0 0
103 6 4 0.121889 7.09836 1.30162 20.6327 0 0 0
104 6 3 0.046089 6.57457 2.64884 1.5755 0 0 1
105 6 3 0.046089 6.75511 0.919669 1.64473 0 0 1
106 6 3 0.033922 4.33767 1.66296 1.48207 0 0 1
107 6 3 0.033922 4.60898 2.51529 0.0567567 0 0 1
108 6 3 0.033922 4.77952 0.729465 -0.0334447 0 0 1
109 7 1 -0.091211 31.7084 1.42891 20.9282 -1 1 -1
110 7 1 -0.050311 32.6741 0.666406 19.9531 -1 1 -1
111 7 2 -0.174311 33.0514 1.52182 18.7626 -1 1 -1
112 7 2 -0.174311 33.4557 0.96928 17.5183 -1 1 -1
113 7 1 -0.050311 33.7192 19.8436 17.2895 -1 0 -1
114 7 1 -0.091211 34.0948 19.5726 15.851 -1 0 -1
115 7 3 0.033922 30.7031 1.55245 20.515 -1 1 -1
116 7 3 0.033922 32.1664 2.40866 21.0924 -1 1 -1
117 7 3 0.033922 31.7872 0.918472 0.131817 -1 1 0
118 7 3 0.046089 33.5528 20.8166 20.5954 -1 0 -1
119 7 3 0.046089 32.3047 19.9456 19.6382 -1 0 -1
120 7 4 0.121889 33.0178 2.606 18.8003 -1 1 -1
121 7 4 0.121889 33.7029 1.66229 16.7204 -1 1 -1
122 7 3 0.046089 32.7579 19.4301 17.6083 -1 0 -1
123 7 3 0.046089 34.5295 19.5313 17.9547 -1 0 -1
124 7 3 0.033922 35.076 20.0327 15.7021 -1 0 -1
125 7 3 0.033922 34.3651 18.5292 15.6645 -1 0 -1
126 7 3 0.033922 33.3753 19.9301 15.1086 -1 0 -1
127 8 1 -0.091211 40.8976 8.41623 3.46657 -1 0 1
128 8 1 -0.050311 42.2675 8.48896 4.20076 -1 0 1
129 8 2 -0.174311 -4.23605 8.42359 3.21773 0 0 1
130 8 2 -0.174311 -3.26638 9.35588 2.95523 0 0 1
131 8 1 -0.050311 -3.22539 10.706 3.59489 0 0 1
132 8 1 -0.091211 -2.15337 11.5656 3.01341 0 0 1
133 8 3 0.033922 40.0569 8.36022 4.16421 -1 0 1
134 8 3 0.033922 40.8322 7.48382 2.89827 -1 0 1
135 8 3 0.033922 40.7513 9.3396 2.8986 -1 0 1
136 8 3 0.046089 42.3438 9.47118 4.6762 -1 0 1
137 8 3 0.046089 42.3765 7.75137 5.00121 -1 0 1
138 8 4 0.121889 -4.17258 7.53733 2.59442 0 0 1
139 8 4 0.121889 -2.44573 9.01455 2.33229 0 0 1
140 8 3 0.046089 -3.10263 10.6586 4.68086 0 0 1
141 8 3 0.046089 -4.10194 11.3309 3.40025 0 0 1
142 8 3 0.033922 -1.92286 12.4289 3.64443 0 0 1
143 8 3 0.033922 -1.23396 10.9733 3.03543 0 0 1
144 8 3 0.033922 -2.31239 11.9078 1.98662 0 0 1
145 9 1 -0.091211 38.7064 5.99464 1.44666 -1 1 1
146 9 1 -0.050311 38.4839 5.57326 2.96741 -1 1 1
147 9 2 -0.174311 37.1076 4.86321 3.09076 -1 1 1
148 9 2 -0.174311 36.7914 3.53134 2.9342 -1 1 1
149 9 1 -0.050311 37.8333 2.47087 2.51473 -1 1 1
150 9 1 -0.091211 37.6071 2.15631 0.993065 -1 1 1
151 9 3 0.033922 38.1761 5.3563 0.733963 -1 1 1
152 9 3 0.033922 39.7577 5.95504 1.14698 -1 1 1
153 9 3 0.033922 38.4862 7.05942 1.3267 -1 1 1
154 9 3 0.046089 39.1533 4.7543 3.24659 -1 1 1
155 9 3 0.046089 38.6489 6.47563 3.56335 -1 1 1
156 9 4 0.121889 36.3285 5.56589 3.36884 -1 1 1
157 9 4 0.121889 35.7855 3.14668 3.06912 -1 1 1
158 9 3 0.046089 37.6879 1.54529 3.07935 -1 1 1
159 9 3 0.046089 38.88 2.77341 2.61249 -1 1 1
160 9 3 0.033922 37.8096 3.05401 0.401677 -1 1 1
161 9 3 0.033922 38.31 1.36511 0.716336 -1 1 1
162 9 3 0.033922 36.6063 1.77902 0.763103 -1 1 1
163 10 1 -0.091211 3.66575 10.9942 9.15096 0 0 1
164 10 1 -0.050311 5.09534 10.4254 9.41913 0 0 1
165 10 2 -0.174311 6.07939 11.5818 9.44172 0 0 1
166 10 2 -0.174311 7.4197 11.4442 9.86024 0 0 1
167 10 1 -0.050311 8.02453 10.1686 10.2898 0 0 1
168 10 1 -0.091211 9.24788 10.4166 11.1719 0 0 1
169 10 3 0.033922 3.37397 11.612 10.0052 0 0 1
170 10 3 0.033922 2.9495 10.1691 9.09698 0 0 1
171 10 3 0.033922 3.71907 11.5499 8.21022 0 0 1
172 10 3 0.046089 5.06191 9.98177 10.4185 0 0 1
173 10 3 0.046089 5.41852 9.68386 8.68272 0 0 1
174 10 4 0.121889 5.76914 12.5871 9.17524 0 0 1
175 10 4 0.121889 8.05888 12.3202 9.81524 0 0 1
176 10 3 0.046089 8.55382 9.67151 9.47159 0 0 1
177 10 3 0.046089 7.31987 9.45927 10.7335 0 0 1
178 10 3 0.033922 9.95625 11.054 10.6347 0 0 1
179 10 3 0.033922 8.95284 10.9187 12.0979 0 0 1
180 10 3 0.033922 9.75809 9.48985 11.4503 0 0 1
181 11 1 -0.091211 -2.31297 11.3293 18.4302 0 0 0
182 11 1 -0.050311 -2.46402 12.6572 17.6903 0 0 0
183 11 2 -0.174311 -3.72796 13.3272 18.0811 0 0 0
184 11 2 -0.174311 -3.78206 14.735 18.1382 0 0 0
185 11 1 -0.050311 -2.79958 15.7423 17.6219 0 0 0
186 11 1 -0.091211 -3.60098 16.8416 16.9363 0 0 0
187 11 3 0.033922 -2.52994 11.399 19.5001 0 0 0
188 11 3 0.033922 -1.31344 10.8968 18.3274 0 0 0
189 11 3 0.033922 -3.01304 10.6145 17.9879 0 0 0
190 11 3 0.046089 -1.63528 13.3609 17.8115 0 0 0
191 11 3 0.046089 -2.4396 12.5459 16.6024 0 0 0
192 11 4 0.121889 43.0054 12.7723 18.386 -1 0 0
193 11 4 0.121889 42.8695 15.1122 18.4663 -1 0 0
194 11 3 0.046089 -2.12893 15.2007 16.9485 0 0 0
195 11 3 0.046089 -2.21032 16.1743 18.436 0 0 0
196 11 3 0.033922 -4.2584 17.3446 17.6515 0 0 0
197 11 3 0.033922 -2.89825 17.5494 16.487 0 0 0
198 11 3 0.033922 -4.20339 16.4168 16.128 0 0 0
199 12 1 -0.091211 -0.608414 10.916 7.27394 0 0 0
200 12 1 -0.050311 -0.805453 9.515 7.85078 0 0 0
201 12 2 -0.174311 -0.224732 9.31472 9.22956 0 0 0
202 12 2 -0.174311 -0.682736 8.4345 10.1133 0 0 0
203 12 1 -0.050311 -1.70186 7.3716 9.78999 0 0 0
204 12 1 -0.091211 -2.16613 6.88775 11.1624 0 0 0
205 12 3 0.033922 -1.57384 11.2229 6.86114 0 0 0
206 12 3 0.033922 0.0973523 10.8323 6.44234 0 0 0
207 12 3 0.033922 -0.249466 11.5895 8.0576 0 0 0
208 12 3 0.046089 -1.86091 9.22805 7.83226 0 0 0
209 12 3 0.046089 -0.40841 8.82041 7.10476 0 0 0
210 12 4 0.121889 0.537575 10.0101 9.56621 0 0 0
211 12 4 0.121889 -0.106171 8.26422 11.017 0 0 0
212 12 3 0.046089 -1.38201 6.56604 9.12259 0 0 0
213 12 3 0.046089 -2.60865 7.79908 9.35222 0 0 0
214 12 3 0.033922 -1.3799 6.54908 11.8434 0 0 0
215 12 3 0.033922 -2.66204 7.67479 11.738 0 0 0
216 12 3 0.033922 -2.87432 6.05411 11.1502 0 0 0
217 13 1 -0.091211 0.382344 14.101 4.77377 0 0 1
218 13 1 -0.050311 -0.736552 15.0864 5.03428 0 0 1
219 13 2 -0.174311 -1.6337 14.6472 6.13049 0 0 1
220 13 2 -0.174311 -1.89228 15.3494 7.22146 0 0 1
221 13 1 -0.050311 -1.3688 16.6291 7.63629 0 0 1
222 13 1 -0.091211 -0.0517945 16.3861 8.29667 0 0 1
223 13 3 0.033922 1.20129 14.3473 5.45593 0 0 1
224 13 3 0.033922 0.751299 14.1138 3.74403 0 0 1
225 13 3 0.033922 0.219547 13.0323 4.94115 0 0 1
226 13 3 0.046089 -0.393677 16.1039 5.24331 0 0 1
227 13 3 0.046089 -1.39766 15.1899 4.16891 0 0 1
228 13 4 0.121889 -2.14506 13.7071 5.94922 0 0 1
229 13 4 0.121889 -2.63155 14.9489 7.90785 0 0 1
230 13 3 0.046089 -1.96195 17.1837 8.36927 0 0 1
231 13 3 0.046089 -1.25106 17.2863 6.76977 0 0 1
232 13 3 0.033922 0.65514 15.9838 7.56518 0 0 1
233 13 3 0.033922 0.323246 17.3237 8.71724 0 0 1
234 13 3 0.033922 -0.141936 15.7844 9.2058 0 0 1
235 14 1 -0.091211 14.3608 10.241 5.83068 0 0 0
236 14 1 -0.050311 13.9604 9.98112 7.29597 0 0 0
237 14 2 -0.174311 12.4504 10.275 7.36441 0 0 0
238 14 2 -0.174311 11.7882 10.9833 8.37768 0 0 0
239 14 1 -0.050311 12.4211 11.5281 9.63895 0 0 0
240 14 1 -0.091211 12.0591 13.0001 9.82439 0 0 0
241 14 3 0.033922 13.9927 11.2545 5.64594 0 0 0
242 14 3 0.033922 14.0052 9.50877 5.09993 0 0 0
243 14 3 0.033922 15.4447 10.2934 5.6931 0 0 0
244 14 3 0.046089 14.0583 8.91568 7.52371 0 0 0
245 14 3 0.046089 14.6453 10.5462 7.93486 0 0 0
246 14 4 0.121889 11.8468 9.88007 6.55341 0 0 0
247 14 4 0.121889 10.7037 10.9561 8.34269 0 0 0
248 14 3 0.046089 13.5114 11.469 9.57195 0 0 0
249 14 3 0.046089 12.0726 10.8977 10.4622 0 0 0
250 14 3 0.033922 12.731 13.4024 10.5881 0 0 0
251 14 3 0.033922 12.2365 13.5929 8.92234 0 0 0
252 14 3 0.033922 11.0567 13.0412 10.2605 0 0 0
253 15 1 -0.091211 1.46675 1.6183 3.28256 0 1 1
254 15 1 -0.050311 2.05244 20.4721 3.51701 0 0 1
255 15 2 -0.174311 1.0201 19.3304 3.60826 0 0 1
256 15 2 -0.174311 1.30337 18.1245 3.10684 0 0 1
257 15 1 -0.050311 2.6686 17.6672 2.76696 0 0 1
258 15 1 -0.091211 2.73432 17.4889 1.18942 0 0 1
259 15 3 0.033922 0.854539 1.7608 2.38727 0 1 1
260 15 3 0.033922 2.31953 2.28612 3.12947 0 1 1
261 15 3 0.033922 0.96109 2.01644 4.16712 0 1 1
262 15 3 0.046089 2.73947 20.2973 2.68389 0 0 1
263 15 3 0.046089 2.61609 20.5006 4.45411 0 0 1
264 15 4 0.121889 -0.015638 19.5318 3.8627 0 0 1
265 15 4 0.121889 0.496998 17.3982 3.09161 0 0 1
266 15 3 0.046089 2.73787 16.6894 3.25257 0 0 1
267 15 3 0.046089 3.45403 18.3278 3.14567 0 0 1
268 15 3 0.033922 1.98034 16.7872 0.820782 0 0 1
269 15 3 0.033922 2.52816 18.4743 0.76172 0 0 1
270 15 3 0.033922 3.71054 17.1984 0.790282 0 0 1
271 16 1 -0.091211 6.77035 5.50136 5.82589 0 1 0
272 16 1 -0.050311 8.03484 5.75861 4.9305 0 1 0
273 16 2 -0.174311 8.55158 7.17698 5.15651 0 1 0
274 16 2 -0.174311 9.83351 7.58923 4.78038 0 1 0
275 16 1 -0.050311 10.7118 6.65919 3.97796 0 1 0
276 16 1 -0.091211 11.6471 7.33205 3.04253 0 1 0
277 16 3 0.033922 7.0648 5.44742 6.87805 0 1 0
278 16 3 0.033922 6.28458 4.57663 5.50102 0 1 0
279 16 3 0.033922 6.0517 6.32069 5.73161 0 1 0
280 16 3 0.046089 8.83088 5.0294 5.1072 0 1 0
281 16 3 0.046089 7.81419 5.56789 3.87618 0 1 0
282 16 4 0.121889 7.9978 7.98753 5.61951 0 1 0
283 16 4 0.121889 10.0932 8.57654 5.14887 0 1 0
284 16 3 0.046089 9.95799 6.14461 3.37494 0 1 0
285 16 3 0.046089 11.1777 5.90714 4.62141 0 1 0
286 16 3 0.033922 12.5986 7.60776 3.50656 0 1 0
287 16 3 0.033922 11.8366 6.57232 2.27864 0 1 0
288 16 3 0.033922 11.1862 8.24268 2.64882 0 1 0
289 17 1 -0.091211 6.14211 9.56423 14.2407 0 0 0
290 17 1 -0.050311 6.71555 10.5329 15.3468 0 0 0
291 17 2 -0.174311 6.70195 11.8777 14.7301 0 0 0
292 17 2 -0.174311 6.48941 13.0589 15.3966 0 0 0
293 17 1 -0.050311 6.32542 13.1853 16.9461 0 0 0
294 17 1 -0.091211 6.92244 14.4941 17.532 0 0 0
295 17 3 0.033922 6.06086 8.5606 14.6682 0 0 0
296 17 3 0.033922 6.83559 9.49255 13.3977 0 0 0
297 17 3 0.033922 5.1783 9.89872 13.8459 0 0 0
298 17 3 0.046089 6.05387 10.4354 16.2125 0 0 0
299 17 3 0.046089 7.73394 10.1984 15.5651 0 0 0
300 17 4 0.121889 6.49904 11.875 13.6639 0 0 0
301 17 4 0.121889 6.38416 13.886 14.7017 0 0 0
302 17 3 0.046089 6.70643 12.3623 17.5578 0 0 0
303 17 3 0.046089 5.24095 13.2452 17.0765 0 0 0
304 17 3 0.033922 8.016 14.4939 17.5601 0 0 0
305 17 3 0.033922 6.6405 15.4223 17.0263 0 0 0
306 17 3 0.033922 6.70346 14.5936 18.5991 0 0 0
307 18 1 -0.091211 35.0766 5.99535 16.1152 -1 0 1
308 18 1 -0.050311 34.6046 7.22969 15.4408 -1 0 1
309 18 2 -0.174311 35.8612 7.95376 14.9888 -1 0 1
310 18 2 -0.174311 36.1756 8.24417 13.6667 -1 0 1
311 18 1 -0.050311 35.3859 7.83788 12.4719 -1 0 1
312 18 1 -0.091211 36.0146 8.1287 11.1965 -1 0 1
313 18 3 0.033922 34.1827 5.44041 16.4147 -1 0 1
314 18 3 0.033922 35.6784 6.30283 16.9753 -1 0 1
315 18 3 0.033922 35.7516 5.45657 15.4438 -1 0 1
316 18 3 0.046089 34.0101 6.87002 14.5959 -1 0 1
317 18 3 0.046089 33.9411 7.84952 16.0509 -1 0 1
318 18 4 0.121889 36.5569 8.28813 15.7519 -1 0 1
319 18 4 0.121889 37.1336 8.69405 13.426 -1 0 1
320 18 3 0.046089 34.4596 8.4182 12.5147 -1 0 1
321 18 3 0.046089 35.1552 6.7722 12.5598 -1 0 1
322 18 3 0.033922 35.9816 9.20936 11.03 -1 0 1
323 18 3 0.033922 37.0258 7.72175 11.1045 -1 0 1
324 18 3 0.033922 35.3158 7.73884 10.4506 -1 0 1
325 19 1 -0.091211 8.24786 11.119 6.5222 0 0 0
326 19 1 -0.050311 8.82505 11.4951 5.16243 0 0 0
327 19 2 -0.174311 10.2039 12.1385 5.30681 0 0 0
328 19 2 -0.174311 10.9952 12.4656 4.24741 0 0 0
329 19 1 -0.050311 10.6847 12.2476 2.76121 0 0 0
330 19 1 -0.091211 10.3666 13.639 2.05367 0 0 0
331 19 3 0.033922 7.28517 10.6317 6.34209 0 0 0
332 19 3 0.033922 8.14126 12.0866 7.02126 0 0 0
333 19 3 0.033922 8.91308 10.4205 7.03818 0 0 0
334 19 3 0.046089 8.94704 10.5929 4.55598 0 0 0
335 19 3 0.046089 8.15679 12.1989 4.65764 0 0 0
336 19 4 0.121889 10.6096 12.3012 6.30027 0 0 0
337 19 4 0.121889 12.0186 12.7597 4.45736 0 0 0
338 19 3 0.046089 9.86549 11.5785 2.4822 0 0 0
339 19 3 0.046089 11.5956 11.7977 2.35568 0 0 0
340 19 3 0.033922 11.2523 14.2797 2.09572 0 0 0
341 19 3 0.033922 10.1631 13.5452 0.982963 0 0 0
342 19 3 0.033922 9.49937 14.0812 2.5527 0 0 0
343 20 1 -0.091211 8.45161 20.4915 9.22628 0 -1 0
344 20 1 -0.050311 8.97678 0.879107 7.9513 0 0 0
345 20 2 -0.174311 9.23421 20.1419 6.79233 0 -1 0
346 20 2 -0.174311 10.2199 20.2554 5.8025 0 -1 0
347 20 1 -0.050311 11.1181 1.23547 5.67812 0 0 0
348 20 1 -0.091211 11.8146 1.03162 4.34609 0 0 0
349 20 3 0.033922 9.01459 19.6153 9.56073 0 -1 0
350 20 3 0.033922 7.46705 20.0828 8.98089 0 -1 0
351 20 3 0.033922 8.30305 0.939711 10.0471 0 0 0
352 20 3 0.046089 8.228 1.56655 7.54708 0 0 0
353 20 3 0.046089 9.91157 1.41504 8.13999 0 0 0
354 20 4 0.121889 8.59988 19.2618 6.76066 0 -1 0
355 20 4 0.121889 10.2867 19.4985 5.02747 0 -1 0
356 20 3 0.046089 11.8802 1.41592 6.44184 0 0 0
357 20 3 0.046089 10.4488 2.10065 5.69027 0 0 0
358 20 3 0.033922 12.419 20.3799 4.31439 0 -1 0
359 20 3 0.033922 11.1691 0.975851 3.46471 0 0 0
360 20 3 0.033922 12.4679 1.90614 4.27502 0 0 0
361 21 1 -0.091211 -1.84418 1.9006 0.508835 0 0 1
362 21 1 -0.050311 -2.48424 20.8027 0.52136 0 -1 1
363 21 2 -0.174311 -2.34452 20.1783 20.9246 0 -1 0
364 21 2 -0.174311 -2.10956 18.8101 20.8226 0 -1 0
365 21 1 -0.050311 -1.97409 17.7723 0.126962 0 -1 1
366 21 1 -0.091211 -1.08286 16.6025 21.2938 0 -1 0
367 21 3 0.033922 -0.803047 1.58499 0.623326 0 0 1
368 21 3 0.033922 -2.18318 2.49271 1.36389 0 0 1
369 21 3 0.033922 -1.94115 2.46708 21.3387 0 0 0
370 21 3 0.046089 -2.07242 20.3058 1.4046 0 -1 1
371 21 3 0.046089 -3.56509 0.660401 0.642666 0 0 1
372 21 4 0.121889 -2.5979 20.795 20.0682 0 -1 0
373 21 4 0.121889 -2.00241 18.551 19.774 0 -1 0
374 21 3 0.046089 -2.96044 17.3779 0.388112 0 -1 1
375 21 3 0.046089 -1.55092 18.2041 1.03864 0 -1 1
376 21 3 0.033922 -0.126047 16.9751 20.9165 0 -1 0
377 21 3 0.033922 -0.971258 15.9735 0.421145 0 -1 1
378 21 3 0.033922 -1.52684 16.0421 20.4659 0 -1 0
379 22 1 -0.091211 5.29674 18.3152 13.5905 0 -1 0
380 22 1 -0.050311 5.00802 18.9706 14.9634 0 -1 0
381 22 2 -0.174311 4.44181 17.9313 15.8333 0 -1 0
382 22 2 -0.174311 4.94731 17.5299 17.0954 0 -1 0
383 22 1 -0.050311 5.99004 18.3229 17.8511 0 -1 0
384 22 1 -0.091211 5.7114 18.4083 19.3266 0 -1 0
385 22 3 0.033922 5.55011 19.1172 12.8911 0 -1 0
386 22 3 0.033922 4.39125 17.8433 13.198 0 -1 0
387 22 3 0.033922 6.10843 17.5819 13.6014 0 -1 0
388 22 3 0.046089 5.87376 19.5119 15.3561 0 -1 0
389 22 3 0.046089 4.23622 19.7412 14.8785 0 -1 0
390 22 4 0.121889 3.663 17.2776 15.4537 0 -1 0
391 22 4 0.121889 4.65777 16.5928 17.5602 0 -1 0
392 22 3 0.046089 6.05911 19.3334 17.4379 0 -1 0
393 22 3 0.046089 7.00846 17.981 17.6447 0 -1 0
394 22 3 0.033922 4.66131 18.6851 19.4583 0 -1 0
395 22 3 0.033922 5.83876 17.4144 19.7655 0 -1 0
396 22 3 0.033922 6.43407 19.0986 19.7714 0 -1 0
397 23 1 -0.091211 -0.927585 5.98681 2.78884 0 0 0
398 23 1 -0.050311 0.244679 6.25098 3.82652 0 0 0
399 23 2 -0.174311 -0.0223375 7.56192 4.45127 0 0 0
400 23 2 -0.174311 0.396017 8.78512 3.89793 0 0 0
401 23 1 -0.050311 0.920536 8.96986 2.49781 0 0 0
402 23 1 -0.091211 1.82958 10.2075 2.32379 0 0 0
403 23 3 0.033922 -0.958222 4.99024 2.33882 0 0 0
404 23 3 0.033922 -0.900693 6.68617 1.94812 0 0 0
405 23 3 0.033922 -1.88309 6.13835 3.29944 0 0 0
406 23 3 0.046089 0.201977 5.50407 4.6246 0 0 0
407 23 3 0.046089 1.24047 6.20141 3.3764 0 0 0
408 23 4 0.121889 -0.488525 7.5465 5.43131 0 0 0
409 23 4 0.121889 0.344229 9.69949 4.48038 0 0 0
410 23 3 0.046089 0.0951791 9.09412 1.7907 0 0 0
411 23 3 0.046089 1.60091 8.15173 2.24405 0 0 0
412 23 3 0.033922 2.67743 10.1126 3.00848 0 0 0
413 23 3 0.033922 2.0969 10.1817 1.26336 0 0 0
414 23 3 0.033922 1.27351 11.1368 2.47838 0 0 0
415 24 1 -0.091211 6.47663 15.2731 0.695374 0 0 0
416 24 1 -0.050311 6.33037 14.2657 1.81371 0 0 0
417 24 2 -0.174311 4.9681 13.8678 2.1292 0 0 0
418 24 2 -0.174311 4.44323 13.9961 3.39308 0 0 0
419 24 1 -0.050311 5.11039 14.5894 4.56951 0 0 0
420 24 1 -0.091211 4.30458 14.466 5.83445 0 0 0
421 24 3 0.033922 6.08512 14.9326 -0.267638 0 0 0
422 24 3 0.033922 7.53361 15.5544 0.677148 0 0 0
423 24 3 0.033922 5.94572 16.1879 0.974678 0 0 0
424 24 3 0.046089 7.00677 13.4523 1.53525 0 0 0
425 24 3 0.046089 6.88582 14.712 2.64374 0 0 0
426 24 4 0.121889 4.36246 13.3429 1.39724 0 0 0
427 24 4 0.121889 3.46416 13.58 3.60838 0 0 0
428 24 3 0.046089 5.22542 15.6516 4.33465 0 0 0
429 24 3 0.046089 6.08712 14.1361 4.76233 0 0 0
430 24 3 0.033922 3.31439 14.9132 5.707 0 0 0
431 24 3 0.033922 4.14242 13.4096 6.0678 0 0 0
432 24 3 0.033922 4.84087 14.9084 6.67904 0 0 0
433 25 1 -0.091211 4.38585 7.12581 11.639 0 0 0
434 25 1 -0.050311 3.476 7.23665 12.8693 0 0 0
435 25 2 -0.174311 2.05514 6.60065 12.7544 0 0 0
436 25 2 -0.174311 1.32665 6.34016 13.8355 0 0 0
437 25 1 -0.050311 1.64958 6.592 15.3117 0 0 0
438 25 1 -0.091211 0.395113 6.23956 16.2335 0 0 0
439 25 3 0.033922 4.6605 6.07704 11.4931 0 0 0
440 25 3 0.033922 5.34278 7.63816 11.7748 0 0 0
441 25 3 0.033922 3.81919 7.46353 10.7664 0 0 0
442 25 3 0.046089 4.07453 6.94815 13.7383 0 0 0
443 25 3 0.046089 3.27887 8.28826 13.0971 0 0 0
444 25 4 0.121889 1.63865 6.52557 11.755 0 0 0
445 25 4 0.121889 0.379882 5.87456 13.5807 0 0 0
446 25 3 0.046089 1.88126 7.64453 15.4992 0 0 0
447 25 3 0.046089 2.56331 6.06068 15.5936 0 0 0
448 25 3 0.033922 0.252198 5.17005 16.0537 0 0 0
449 25 3 0.033922 0.71639 6.47267 17.2529 0 0 0
450 25 3 0.033922 -0.51312 6.80455 16.0043 0 0 0
451 26 1 -0.091211 2.34779 14.6959 18.3378 0 -1 0
452 26 1 -0.050311 3.40188 14.4509 19.3627 0 -1 0
453 26 2 -0.174311 3.47842 13.0149 19.7628 0 -1 0
454 26 2 -0.174311 2.54636 12.4127 20.6472 0 -1 0
455 26 1 -0.050311 1.48726 13.0918 21.468 0 -1 0
456 26 1 -0.091211 0.160767 12.4911 21.0238 0 -1 0
457 26 3 0.033922 2.47054 14.1097 17.4224 0 -1 0
458 26 3 0.033922 2.21629 15.7148 17.962 0 -1 0
459 26 3 0.033922 1.36539 14.4535 18.7535 0 -1 0
460 26 3 0.046089 4.34267 14.7293 18.8789 0 -1 0
461 26 3 0.046089 3.30579 15.1643 20.1863 0 -1 0
462 26 4 0.121889 4.19196 12.4154 19.2065 0 -1 0
463 26 4 0.121889 2.67315 11.3357 20.6932 0 -1 0
464 26 3 0.046089 1.48804 14.1778 21.3364 0 -1 0
465 26 3 0.046089 1.64054 12.8588 0.765107 0 -1 1
466 26 3 0.033922 -0.632022 12.7631 -0.0338408 0 -1 1
467 26 3 0.033922 0.0224505 12.7294 19.9652 0 -1 0
468 26 3 0.033922 0.193551 11.3987 21.0703 0 -1 0
469 27 1 -0.091211 14.788 15.1838 -0.0567894 0 0 0
470 27 1 -0.050311 15.1497 14.6755 20.2896 0 0 -1
471 27 2 -0.174311 15.983 15.7813 19.6729 0 0 -1
472 27 2 -0.174311 17.2453 15.5663 19.3038 0 0 -1
473 27 1 -0.050311 18.0084 14.3485 19.578 0 0 -1
474 27 1 -0.091211 19.2826 14.5403 18.7973 0 0 -1
475 27 3 0.033922 14.2397 14.3832 0.448337 0 0 0
476 27 3 0.033922 14.125 16.0532 -0.0930019 0 0 0
477 27 3 0.033922 15.7344 15.3379 0.469765 0 0 0
478 27 3 0.046089 15.6276 13.7084 20.4713 0 0 -1
479 27 3 0.046089 14.2296 14.5027 19.7237 0 0 -1
480 27 4 0.121889 15.5943 16.7361 19.3333 0 0 -1
481 27 4 0.121889 17.7623 16.376 18.7986 0 0 -1
482 27 3 0.046089 17.5925 13.3556 19.3835 0 0 -1
483 27 3 0.046089 18.2176 14.3092 20.651 0 0 -1
484 27 3 0.033922 19.7732 15.4988 18.9902 0 0 -1
485 27 3 0.033922 19.9846 13.7359 19.0356 0 0 -1
486 27 3 0.033922 19.1059 14.6357 17.722 0 0 -1
487 28 1 -0.091211 10.443 15.4729 20.2426 0 -1 -1
488 28 1 -0.050311 10.5632 16.9193 20.6964 0 -1 -1
489 28 2 -0.174311 10.6639 16.7491 0.389368 0 -1 0
490 28 2 -0.174311 9.82466 17.3608 1.32703 0 -1 0
491 28 1 -0.050311 8.65587 18.2861 1.08428 0 -1 0
492 28 1 -0.091211 7.83287 18.4994 2.31405 0 -1 0
493 28 3 0.033922 10.3399 15.4273 19.1545 0 -1 -1
494 28 3 0.033922 9.59508 15.0308 20.7738 0 -1 -1
495 28 3 0.033922 11.3922 14.9449 20.3724 0 -1 -1
496 28 3 0.046089 11.5193 17.3409 20.3726 0 -1 -1
497 28 3 0.046089 9.69752 17.5242 20.4112 0 -1 -1
498 28 4 0.121889 11.4706 16.1395 0.783965 0 -1 0
499 28 4 0.121889 10.133 17.0645 2.3246 0 -1 0
500 28 3 0.046089 8.04534 17.8634 0.280989 0 -1 0
501 28 3 0.046089 8.94798 19.2619 0.685482 0 -1 0
502 28 3 0.033922 6.78466 18.7636 2.14641 0 -1 0
503 28 3 0.033922 7.8873 17.545 2.84572 0 -1 0
504 28 3 0.033922 8.36307 19.1656 3.00082 0 -1 0
505 29 1 -0.091211 5.5675 9.65089 3.23015 0 0 0
506 29 1 -0.050311 5.06277 8.63918 2.22448 0 0 0
507 29 2 -0.174311 6.05321 7.60276 1.74956 0 0 0
508 29 2 -0.174311 5.79515 6.23893 1.65776 0 0 0
509 29 1 -0.050311 4.44365 5.55473 1.73852 0 0 0
510 29 1 -0.091211 4.31086 4.91352 3.07876 0 0 0
511 29 3 0.033922 6.13563 10.4703 2.78025 0 0 0
512 29 3 0.033922 6.16289 9.37123 4.10419 0 0 0
513 29 3 0.033922 4.70627 10.1678 3.66343 0 0 0
514 29 3 0.046089 4.19563 8.15676 2.68491 0 0 0
515 29 3 0.046089 4.63012 9.23141 1.41287 0 0 0
516 29 4 0.121889 7.08022 7.91516 1.5892 0 0 0
517 29 4 0.121889 6.63753 5.5774 1.48227 0 0 0
518 29 3 0.046089 4.45698 4.83991 0.910583 0 0 0
519 29 3 0.046089 3.60103 6.2349 1.58358 0 0 0
520 29 3 0.033922 5.20799 4.3288 3.30218 0 0 0
521 29 3 0.033922 4.26586 5.6358 3.89908 0 0 0
522 29 3 0.033922 3.47235 4.21607 3.16313 0 0 0
523 30 1 -0.091211 2.39789 7.27474 7.90346 0 1 1
524 30 1 -0.050311 3.1235 5.91069 7.7772 0 1 1
525 30 2 -0.174311 2.52215 5.06507 6.63285 0 1 1
526 30 2 -0.174311 1.81398 3.90528 6.82419 0 1 1
527 30 1 -0.050311 1.48272 3.312 8.24506 0 1 1
528 30 1 -0.091211 2.17027 1.98297 8.62621 0 1 1
529 30 3 0.033922 1.48851 7.25157 8.51104 0 1 1
530 30 3 0.033922 2.11604 7.7923 6.98187 0 1 1
531 30 3 0.033922 2.95735 7.96809 8.53823 0 1 1
532 30 3 0.046089 4.18969 6.11982 7.65009 0 1 1
533 30 3 0.046089 2.97222 5.33784 8.69676 0 1 1
534 30 4 0.121889 2.54385 5.46407 5.62371 0 1 1
535 30 4 0.121889 1.37322 3.35188 6.00108 0 1 1
536 30 3 0.046089 0.453488 2.95849 8.13385 0 1 1
537 30 3 0.046089 1.57557 4.02104 9.07289 0 1 1
538 30 3 0.033922 1.72539 1.62969 9.56105 0 1 1
539 30 3 0.033922 2.04125 1.25843 7.81687 0 1 1
540 30 3 0.033922 3.22815 2.25435 8.68881 0 1 1
541 31 1 -0.091211 20.8202 0.921451 16.4665 0 1 0
542 31 1 -0.050311 21.3422 20.4635 15.1905 0 0 0
543 31 2 -0.174311 22.2732 19.2768 15.5201 0 0 0
544 31 2 -0.174311 22.8156 18.5661 14.5143 0 0 0
545 31 1 -0.050311 22.4963 18.7155 13.0386 0 0 0
546 31 1 -0.091211 23.7055 18.7393 12.0958 0 0 0
547 31 3 0.033922 20.1931 20.5118 17.0629 0 0 0
548 31 3 0.033922 20.2682 1.77903 16.0709 0 1 0
549 31 3 0.033922 21.574 1.29969 17.1632 0 1 0
550 31 3 0.046089 20.541 20.0408 14.5773 0 0 0
551 31 3 0.046089 21.9067 0.939737 14.6102 0 1 0
552 31 4 0.121889 22.5629 19.1348 16.5564 0 0 0
553 31 4 0.121889 23.4326 17.7286 14.8239 0 0 0
554 31 3 0.046089 22.0321 19.6961 12.8993 0 0 0
555 31 3 0.046089 21.7468 17.9815 12.7286 0 0 0
556 31 3 0.033922 24.3938 19.4515 12.5604 0 0 0
557 31 3 0.033922 24.1543 17.7518 11.9544 0 0 0
558 31 3 0.033922 23.4636 18.969 11.054 0 0 0
559 32 1 -0.091211 17.5256 2.53692 4.0248 0 1 0
560 32 1 -0.050311 16.7578 2.65827 2.66151 0 1 0
561 32 2 -0.174311 16.837 4.00797 2.10982 0 1 0
562 32 2 -0.174311 15.9826 5.05297 2.48925 0 1 0
563 32 1 -0.050311 14.8055 4.99501 3.34132 0 1 0
564 32 1 -0.091211 14.8446 6.10813 4.413 0 1 0
565 32 3 0.033922 17.5053 1.49323 4.35177 0 1 0
566 32 3 0.033922 17.2156 3.13557 4.88629 0 1 0
567 32 3 0.033922 18.5692 2.78323 3.80847 0 1 0
568 32 3 0.046089 17.2342 1.95629 1.97092 0 1 0
569 32 3 0.046089 15.7345 2.35099 2.89626 0 1 0
570 32 4 0.121889 17.6169 4.24921 1.39455 0 1 0
571 32 4 0.121889 16.0272 6.01925 1.99698 0 1 0
572 32 3 0.046089 14.7592 4.03343 3.86079 0 1 0
573 32 3 0.046089 13.8201 5.12633 2.88464 0 1 0
574 32 3 0.033922 13.9317 6.02497 5.00992 0 1 0
575 32 3 0.033922 15.783 6.00312 4.96535 0 1 0
576 32 3 0.033922 14.816 7.0899 3.93141 0 1 0
577 33 1 -0.091211 13.3128 8.30185 14.257 0 0 0
578 33 1 -0.050311 13.2056 9.00247 12.9609 0 0 0
579 33 2 -0.174311 14.5386 9.42967 12.403 0 0 0
580 33 2 -0.174311 15.1569 10.6961 12.6164 0 0 0
581 33 1 -0.050311 14.5184 11.8039 13.3486 0 0 0
582 33 1 -0.091211 15.5493 12.605 14.1171 0 0 0
583 33 3 0.033922 13.4401 8.91195 15.156 0 0 0
584 33 3 0.033922 14.1315 7.57669 14.2334 0 0 0
585 33 3 0.033922 12.3299 7.83776 14.38 0 0 0
586 33 3 0.046089 12.7517 8.33667 12.2211 0 0 0
587 33 3 0.046089 12.4997 9.82809 13.0898 0 0 0
588 33 4 0.121889 15.1006 8.73809 11.7835 0 0 0
589 33 4 0.121889 16.1294 10.8343 12.1545 0 0 0
590 33 3 0.046089 13.789 11.4426 14.0794 0 0 0
591 33 3 0.046089 14.1316 12.5086 12.6066 0 0 0
592 33 3 0.033922 16.1775 11.9833 14.7618 0 0 0
593 33 3 0.033922 16.2909 13.0214 13.4291 0 0 0
594 33 3 0.033922 14.9715 13.3657 14.6502 0 0 0
595 34 1 -0.091211 15.6285 1.88473 7.44181 0 1 0
596 34 1 -0.050311 14.3913 2.24879 8.34804 0 1 0
597 34 2 -0.174311 14.7594 1.96654 9.75777 0 1 0
598 34 2 -0.174311 13.8581 1.42068 10.6681 0 1 0
599 34 1 -0.050311 12.3982 1.14536 10.4293 0 1 0
600 34 1 -0.091211 11.6996 1.56524 11.7356 0 1 0
601 34 3 0.033922 16.5285 2.35973 7.84307 0 1 0
602 34 3 0.033922 15.5298 2.26263 6.42 0 1 0
603 34 3 0.033922 15.7511 0.805066 7.31565 0 1 0
604 34 3 0.046089 14.1449 3.31435 8.3259 0 1 0
605 34 3 0.046089 13.4275 1.80867 8.07593 0 1 0
606 34 4 0.121889 15.8027 2.07031 10.0383 0 1 0
607 34 4 0.121889 14.209 1.12189 11.6508 0 1 0
608 34 3 0.046089 12.2136 20.3588 10.1677 0 0 0
609 34 3 0.046089 11.9657 1.81555 9.68068 0 1 0
610 34 3 0.033922 12.0512 1.20235 12.7058 0 1 0
611 34 3 0.033922 11.8391 2.6317 11.9352 0 1 0
612 34 3 0.033922 10.6356 1.31979 11.6698 0 1 0
613 35 1 -0.091211 37.3489 8.10781 18.9548 -1 0 0
614 35 1 -0.050311 37.1259 9.00085 20.1733 -1 0 0
615 35 2 -0.174311 37.2608 10.4594 19.7168 -1 0 0