ITEM: TIMESTEP
31500
ITEM: NUMBER OF ATOMS
1800
ITEM: BOX BOUNDS pp pp pp
1.0242707877067758e-01 3.8705588421229379e+01
-3.5823149762494388e-01 2.1966886997625114e+01
-1.6944391074080141e+00 2.2948172607407940e+01
ITEM: ATOMS id mol type q x y z ix iy iz
1 1 1 -0.091211 7.17457 18.7075 9.03812 0 -1 0
2 1 1 -0.050311 5.77565 18.1883 9.20784 0 -1 0
3 1 2 -0.174311 5.33195 17.4644 7.9345 0 -1 0
4 1 2 -0.174311 4.30256 16.4554 7.9422 0 -1 0
5 1 1 -0.050311 3.5018 15.9626 9.05504 0 -1 0
6 1 1 -0.091211 2.14098 16.6076 8.8764 0 -1 0
7 1 3 0.033922 7.84647 17.9043 8.72175 0 -1 0
8 1 3 0.033922 7.58076 19.1879 9.93301 0 -1 0
9 1 3 0.033922 7.19137 19.4755 8.25935 0 -1 0
10 1 3 0.046089 5.70949 17.5336 10.0817 0 -1 0
11 1 3 0.046089 5.03465 18.9849 9.32186 0 -1 0
12 1 4 0.121889 5.94355 17.7182 7.07454 0 -1 0
13 1 4 0.121889 4.1593 16.003 6.9661 0 -1 0
14 1 3 0.046089 3.8482 16.2565 10.0501 0 -1 0
15 1 3 0.046089 3.45765 14.8704 9.09616 0 -1 0
16 1 3 0.033922 1.65325 16.6996 9.85121 0 -1 0
17 1 3 0.033922 2.26085 17.6472 8.55757 0 -1 0
18 1 3 0.033922 1.53267 15.9981 8.20187 0 -1 0
19 2 1 -0.091211 11.0749 1.37885 18.7324 0 0 0
20 2 1 -0.050311 11.5692 2.77201 18.349 0 0 0
21 2 2 -0.174311 10.3003 3.5964 18.2142 0 0 0
22 2 2 -0.174311 10.0158 4.34719 17.0534 0 0 0
23 2 1 -0.050311 10.8642 4.37211 15.8637 0 0 0
24 2 1 -0.091211 12.0897 5.29464 15.9691 0 0 0
25 2 3 0.033922 10.6981 0.899943 17.824 0 0 0
26 2 3 0.033922 10.3865 1.38553 19.5826 0 0 0
27 2 3 0.033922 11.9538 0.850762 19.1135 0 0 0
28 2 3 0.046089 12.2028 3.17435 19.1448 0 0 0
29 2 3 0.046089 12.2342 2.7887 17.4806 0 0 0
30 2 4 0.121889 9.60791 3.62618 19.0495 0 0 0
31 2 4 0.121889 9.12244 4.96332 17.0727 0 0 0
32 2 3 0.046089 10.2318 4.58487 14.9968 0 0 0
33 2 3 0.046089 11.3097 3.38673 15.6987 0 0 0
34 2 3 0.033922 11.6348 6.2386 16.2832 0 0 0
35 2 3 0.033922 12.7789 5.02298 16.7739 0 0 0
36 2 3 0.033922 12.6194 5.30099 15.0121 0 0 0
37 3 1 -0.091211 4.2237 6.12876 6.71156 0 0 0
38 3 1 -0.050311 4.54555 7.03223 7.92042 0 0 0
39 3 2 -0.174311 5.55712 6.35525 8.82109 0 0 0
40 3 2 -0.174311 5.50828 6.42148 10.1889 0 0 0
41 3 1 -0.050311 4.5941 7.2309 11.0413 0 0 0
42 3 1 -0.091211 3.86796 6.46468 12.189 0 0 0
43 3 3 0.033922 5.15748 5.82124 6.23182 0 0 0
44 3 3 0.033922 3.6919 6.70922 5.95204 0 0 0
45 3 3 0.033922 3.57198 5.32486 7.06605 0 0 0
46 3 3 0.046089 5.06004 7.91167 7.52226 0 0 0
47 3 3 0.046089 3.65923 7.39895 8.44634 0 0 0
48 3 4 0.121889 6.26037 5.63234 8.41998 0 0 0
49 3 4 0.121889 6.24695 5.9073 10.7955 0 0 0
50 3 3 0.046089 3.74194 7.62012 10.4765 0 0 0
51 3 3 0.046089 5.17087 8.07231 11.4363 0 0 0
52 3 3 0.033922 3.16471 7.08958 12.7472 0 0 0
53 3 3 0.033922 3.26358 5.63689 11.8067 0 0 0
54 3 3 0.033922 4.58708 6.03814 12.8944 0 0 0
55 4 1 -0.091211 2.74899 19.0521 5.27332 0 -1 0
56 4 1 -0.050311 1.54309 18.3303 4.62647 0 -1 0
57 4 2 -0.174311 1.90143 16.9409 4.25404 0 -1 0
58 4 2 -0.174311 1.28653 16.2145 3.23526 0 -1 0
59 4 1 -0.050311 0.197398 16.6824 2.33415 0 -1 0
60 4 1 -0.091211 38.0504 15.5094 1.81257 -1 -1 0
61 4 3 0.033922 2.80758 18.7479 6.3224 0 -1 0
62 4 3 0.033922 2.46457 20.1069 5.21751 0 -1 0
63 4 3 0.033922 3.6389 18.7713 4.70247 0 -1 0
64 4 3 0.046089 0.738845 18.341 5.36789 0 -1 0
65 4 3 0.046089 1.21334 18.8324 3.7123 0 -1 0
66 4 4 0.121889 2.81166 16.5469 4.69483 0 -1 0
67 4 4 0.121889 1.72497 15.2615 2.95659 0 -1 0
68 4 3 0.046089 0.623647 17.1841 1.46054 0 -1 0
69 4 3 0.046089 38.093 17.3216 2.87032 -1 -1 0
70 4 3 0.033922 37.2693 15.8351 1.11937 -1 -1 0
71 4 3 0.033922 38.6149 14.7066 1.32949 -1 -1 0
72 4 3 0.033922 37.5525 14.9979 2.64149 -1 -1 0
73 5 1 -0.091211 37.0671 2.61624 6.69204 -1 0 0
74 5 1 -0.050311 35.9447 3.38219 6.08781 -1 0 0
75 5 2 -0.174311 36.1706 3.63345 4.58088 -1 0 0
76 5 2 -0.174311 36.1275 4.8408 3.93585 -1 0 0
77 5 1 -0.050311 35.6897 6.1098 4.58135 -1 0 0
78 5 1 -0.091211 36.5928 7.31053 4.18137 -1 0 0
79 5 3 0.033922 37.0375 2.50503 7.77984 -1 0 0
80 5 3 0.033922 38.0135 3.14516 6.54621 -1 0 0
81 5 3 0.033922 37.2088 1.62878 6.24319 -1 0 0
82 5 3 0.046089 35.0446 2.79909 6.3035 -1 0 0
83 5 3 0.046089 35.9603 4.34367 6.60927 -1 0 0
84 5 4 0.121889 36.3288 2.77543 3.93527 -1 0 0
85 5 4 0.121889 36.2522 4.80353 2.85835 -1 0 0
86 5 3 0.046089 35.6619 6.034 5.67223 -1 0 0
87 5 3 0.046089 34.679 6.35094 4.23933 -1 0 0
88 5 3 0.033922 36.1902 8.22356 4.62963 -1 0 0
89 5 3 0.033922 37.5991 7.1275 4.56932 -1 0 0
90 5 3 0.033922 36.6451 7.43532 3.09591 -1 0 0
91 6 1 -0.091211 9.77741 2.17069 22.4195 0 0 0
92 6 1 -0.050311 9.52887 0.725274 22.5862 0 0 0
93 6 2 -0.174311 8.69974 0.240421 -0.86666 0 0 1
94 6 2 -0.174311 7.45267 -0.311744 -0.905292 0 0 1
95 6 1 -0.050311 6.45788 21.8181 22.566 0 -1 0
96 6 1 -0.091211 5.63647 20.5459 22.7123 0 -1 0
97 6 3 0.033922 10.3247 2.49291 -1.3325 0 0 1
98 6 3 0.033922 8.83684 2.72191 22.3291 0 0 0
99 6 3 0.033922 10.3659 2.44383 21.5388 0 0 0
100 6 3 0.046089 9.09051 0.391215 21.6413 0 0 0
101 6 3 0.046089 10.5444 0.322988 22.646 0 0 0
102 6 4 0.121889 9.30074 0.36566 0.0283747 0 0 1
103 6 4 0.121889 7.0133 -0.511972 0.0667313 0 0 1
104 6 3 0.046089 6.9701 21.6972 21.607 0 -1 0
105 6 3 0.046089 5.81248 0.37378 22.5007 0 0 0
106 6 3 0.033922 4.85584 20.4308 21.9547 0 -1 0
107 6 3 0.033922 6.32125 19.6936 22.674 0 -1 0
108 6 3 0.033922 5.14852 20.5277 -0.951428 0 -1 1
109 7 1 -0.091211 35.8734 9.43748 9.94014 -1 0 0
110 7 1 -0.050311 35.266 10.4823 9.02673 -1 0 0
111 7 2 -0.174311 36.0413 10.4583 7.74044 -1 0 0
112 7 2 -0.174311 36.2971 11.5642 7.02347 -1 0 0
113 7 1 -0.050311 35.7906 12.954 7.40684 -1 0 0
114 7 1 -0.091211 36.113 13.985 6.42432 -1 0 0
115 7 3 0.033922 36.9331 9.69186 10.0342 -1 0 0
116 7 3 0.033922 35.8518 8.37014 9.70146 -1 0 0
117 7 3 0.033922 35.4129 9.59297 10.9201 -1 0 0
118 7 3 0.046089 34.222 10.2683 8.7798 -1 0 0
119 7 3 0.046089 35.2271 11.4125 9.60106 -1 0 0
120 7 4 0.121889 36.4519 9.51884 7.3844 -1 0 0
121 7 4 0.121889 37.0084 11.4873 6.20731 -1 0 0
122 7 3 0.046089 36.1343 13.1592 8.42482 -1 0 0
123 7 3 0.046089 34.7003 12.8656 7.41677 -1 0 0
124 7 3 0.033922 35.9097 13.6375 5.40724 -1 0 0
125 7 3 0.033922 35.5677 14.9065 6.64805 -1 0 0
126 7 3 0.033922 37.1992 14.1147 6.41682 -1 0 0
127 8 1 -0.091211 5.45854 4.66849 17.2103 0 0 0
128 8 1 -0.050311 5.57516 5.6005 18.4361 0 0 0
129 8 2 -0.174311 6.69761 5.15612 19.313 0 0 0
130 8 2 -0.174311 6.77607 4.85909 20.6587 0 0 0
131 8 1 -0.050311 5.56951 4.82831 21.5499 0 0 0
132 8 1 -0.091211 5.01516 3.4094 21.5856 0 0 0
133 8 3 0.033922 5.10871 3.65927 17.4464 0 0 0
134 8 3 0.033922 6.44542 4.54075 16.756 0 0 0
135 8 3 0.033922 4.78196 5.15243 16.4999 0 0 0
136 8 3 0.046089 5.88144 6.53506 17.9571 0 0 0
137 8 3 0.046089 4.6432 5.80548 18.971 0 0 0
138 8 4 0.121889 7.66476 5.1167 18.822 0 0 0
139 8 4 0.121889 7.77379 4.63184 21.0206 0 0 0
140 8 3 0.046089 4.78548 5.52652 21.2425 0 0 0
141 8 3 0.046089 5.91659 5.01694 22.57 0 0 0
142 8 3 0.033922 4.32686 3.33358 22.4324 0 0 0
143 8 3 0.033922 4.47444 3.23509 20.6508 0 0 0
144 8 3 0.033922 5.79947 2.65228 21.6766 0 0 0
145 9 1 -0.091211 5.14664 9.92385 20.8989 0 0 0
146 9 1 -0.050311 3.94932 9.90468 21.6516 0 0 0
147 9 2 -0.174311 3.06688 11.0266 21.071 0 0 0
148 9 2 -0.174311 1.74785 10.7966 20.667 0 0 0
149 9 1 -0.050311 1.07575 9.46011 20.6367 0 0 0
150 9 1 -0.091211 38.1769 9.57149 20.6507 -1 0 0
151 9 3 0.033922 4.9435 9.86531 19.8256 0 0 0
152 9 3 0.033922 5.81274 9.11513 21.2134 0 0 0
153 9 3 0.033922 5.62929 10.8687 21.1651 0 0 0
154 9 3 0.046089 3.49477 8.9122 21.5808 0 0 0
155 9 3 0.046089 4.25115 10.1669 22.6698 0 0 0
156 9 4 0.121889 3.50184 12.0187 21.0038 0 0 0
157 9 4 0.121889 1.28477 11.7264 20.3524 0 0 0
158 9 3 0.046089 1.44824 8.87692 21.4839 0 0 0
159 9 3 0.046089 1.38702 9.03337 19.6788 0 0 0
160 9 3 0.033922 37.876 10.3179 19.9098 -1 0 0
161 9 3 0.033922 37.7429 8.5985 20.4026 -1 0 0
162 9 3 0.033922 37.855 9.87847 21.6501 -1 0 0
163 10 1 -0.091211 7.9802 8.08437 5.55054 0 0 1
164 10 1 -0.050311 9.49823 8.33599 5.36383 0 0 1
165 10 2 -0.174311 10.1181 7.14521 4.87607 0 0 1
166 10 2 -0.174311 11.5149 7.04862 4.86245 0 0 1
167 10 1 -0.050311 12.5491 8.12503 5.2104 0 0 1
168 10 1 -0.091211 13.8284 7.50613 5.6441 0 0 1
169 10 3 0.033922 7.48327 8.07098 4.57614 0 0 1
170 10 3 0.033922 7.58978 8.90486 6.15963 0 0 1
171 10 3 0.033922 7.88186 7.11102 6.03997 0 0 1
172 10 3 0.046089 9.68705 9.22072 4.74882 0 0 1
173 10 3 0.046089 9.81651 8.67677 6.35334 0 0 1
174 10 4 0.121889 9.52853 6.26718 4.63201 0 0 1
175 10 4 0.121889 11.9386 6.09375 4.56795 0 0 1
176 10 3 0.046089 12.2143 8.79592 6.0069 0 0 1
177 10 3 0.046089 12.7471 8.71338 4.30973 0 0 1
178 10 3 0.033922 14.2596 7.14106 4.70741 0 0 1
179 10 3 0.033922 14.5736 8.15584 6.11232 0 0 1
180 10 3 0.033922 13.6368 6.70337 6.36205 0 0 1
181 11 1 -0.091211 36.4049 10.6568 2.09154 -1 0 0
182 11 1 -0.050311 35.32 10.9822 3.13535 -1 0 0
183 11 2 -0.174311 33.889 10.742 2.66499 -1 0 0
184 11 2 -0.174311 32.818 10.7338 3.51793 -1 0 0
185 11 1 -0.050311 33.0105 10.9064 5.06045 -1 0 0
186 11 1 -0.091211 31.652 10.4655 5.72758 -1 0 0
187 11 3 0.033922 36.2347 9.67296 1.64456 -1 0 0
188 11 3 0.033922 37.4197 10.704 2.49721 -1 0 0
189 11 3 0.033922 36.4107 11.283 1.1947 -1 0 0
190 11 3 0.046089 35.413 10.3591 4.02957 -1 0 0
191 11 3 0.046089 35.4802 11.9885 3.53327 -1 0 0
192 11 4 0.121889 33.6595 10.7229 1.60438 -1 0 0
193 11 4 0.121889 31.8308 10.74 3.0667 -1 0 0
194 11 3 0.046089 33.2135 11.9528 5.30664 -1 0 0
195 11 3 0.046089 33.7818 10.2304 5.44086 -1 0 0
196 11 3 0.033922 31.5707 10.6101 6.8088 -1 0 0
197 11 3 0.033922 30.9322 11.1754 5.30977 -1 0 0
198 11 3 0.033922 31.4096 9.44011 5.43359 -1 0 0
199 12 1 -0.091211 4.56473 12.3223 6.26436 0 0 0
200 12 1 -0.050311 5.75569 11.7001 5.6889 0 0 0
201 12 2 -0.174311 5.2865 10.5922 4.80725 0 0 0
202 12 2 -0.174311 5.87131 10.2467 3.55498 0 0 0
203 12 1 -0.050311 7.19297 10.9236 3.0296 0 0 0
204 12 1 -0.091211 7.75892 10.0092 1.8784 0 0 0
205 12 3 0.033922 3.87704 11.5434 6.60649 0 0 0
206 12 3 0.033922 4.17573 12.9614 5.46637 0 0 0
207 12 3 0.033922 4.79321 13.0669 7.03246 0 0 0
208 12 3 0.046089 6.14972 12.5278 5.09201 0 0 0
209 12 3 0.046089 6.37037 11.249 6.4733 0 0 0
210 12 4 0.121889 4.33345 10.1584 5.09288 0 0 0
211 12 4 0.121889 5.37922 9.47719 2.9687 0 0 0
212 12 3 0.046089 7.95578 11.0399 3.80499 0 0 0
213 12 3 0.046089 6.96145 11.9378 2.69149 0 0 0
214 12 3 0.033922 7.06766 9.69281 1.09184 0 0 0
215 12 3 0.033922 8.58678 10.4731 1.33427 0 0 0
216 12 3 0.033922 8.11909 9.08206 2.3337 0 0 0
217 13 1 -0.091211 10.8647 10.9657 8.60048 0 0 0
218 13 1 -0.050311 9.37925 11.3278 8.39157 0 0 0
219 13 2 -0.174311 8.33646 10.59 9.22229 0 0 0
220 13 2 -0.174311 7.3296 11.1559 9.99727 0 0 0
221 13 1 -0.050311 6.95817 12.6013 10.0781 0 0 0
222 13 1 -0.091211 5.39995 12.6815 10.0501 0 0 0
223 13 3 0.033922 10.9792 9.90489 8.35935 0 0 0
224 13 3 0.033922 11.15 10.971 9.65647 0 0 0
225 13 3 0.033922 11.5771 11.5067 7.97079 0 0 0
226 13 3 0.046089 9.32383 12.3903 8.64569 0 0 0
227 13 3 0.046089 9.13286 11.1858 7.33531 0 0 0
228 13 4 0.121889 8.40377 9.50673 9.23154 0 0 0
229 13 4 0.121889 6.73623 10.4309 10.5452 0 0 0
230 13 3 0.046089 7.35891 13.112 9.19769 0 0 0
231 13 3 0.046089 7.24418 13.1028 11.0073 0 0 0
232 13 3 0.033922 4.97166 12.2017 9.16524 0 0 0
233 13 3 0.033922 4.99472 12.1114 10.8911 0 0 0
234 13 3 0.033922 5.14169 13.7361 10.1835 0 0 0
235 14 1 -0.091211 16.4195 6.84921 17.3043 0 0 0
236 14 1 -0.050311 15.9756 8.26331 17.1149 0 0 0
237 14 2 -0.174311 15.0703 8.76888 18.3309 0 0 0
238 14 2 -0.174311 14.0726 9.69631 18.2482 0 0 0
239 14 1 -0.050311 13.5084 10.2998 17.0566 0 0 0
240 14 1 -0.091211 11.9648 10.2706 17.1387 0 0 0
241 14 3 0.033922 15.6077 6.22257 17.685 0 0 0
242 14 3 0.033922 17.2724 6.69862 17.9726 0 0 0
243 14 3 0.033922 16.6662 6.52779 16.2882 0 0 0
244 14 3 0.046089 16.7581 8.99579 16.896 0 0 0
245 14 3 0.046089 15.3255 8.19807 16.2376 0 0 0
246 14 4 0.121889 15.2007 8.32663 19.3135 0 0 0
247 14 4 0.121889 13.5407 10.0411 19.1292 0 0 0
248 14 3 0.046089 13.8765 9.90901 16.1035 0 0 0
249 14 3 0.046089 13.8704 11.3321 17.0516 0 0 0
250 14 3 0.033922 11.57 10.9529 16.3803 0 0 0
251 14 3 0.033922 11.638 9.26371 16.8631 0 0 0
252 14 3 0.033922 11.6604 10.5092 18.162 0 0 0
253 15 1 -0.091211 6.69762 18.3142 18.2826 0 0 0
254 15 1 -0.050311 6.08217 18.9731 19.4812 0 0 0
255 15 2 -0.174311 4.59005 18.5891 19.5395 0 0 0
256 15 2 -0.174311 3.88516 17.6851 20.3749 0 0 0
257 15 1 -0.050311 4.52602 16.763 21.4474 0 0 0
258 15 1 -0.091211 4.30093 15.381 21.0788 0 0 0
259 15 3 0.033922 6.81922 17.2275 18.3118 0 0 0
260 15 3 0.033922 7.71671 18.7118 18.2907 0 0 0
261 15 3 0.033922 6.2177 18.6051 17.3437 0 0 0
262 15 3 0.046089 6.54151 18.6606 20.4235 0 0 0
263 15 3 0.046089 6.28687 20.0475 19.4648 0 0 0
264 15 4 0.121889 4.03632 19.1075 18.7631 0 0 0
265 15 4 0.121889 2.81299 17.6331 20.2142 0 0 0
266 15 3 0.046089 3.97269 16.9274 22.3766 0 0 0
267 15 3 0.046089 5.59806 16.9651 21.5285 0 0 0
268 15 3 0.033922 4.49909 15.2363 20.0128 0 0 0
269 15 3 0.033922 4.83761 14.6597 21.702 0 0 0
270 15 3 0.033922 3.22376 15.2483 21.216 0 0 0
271 16 1 -0.091211 9.80931 21.1285 7.24859 0 0 0
272 16 1 -0.050311 8.95698 -0.252153 6.42723 0 1 0
273 16 2 -0.174311 7.52761 21.7693 6.7228 0 0 0
274 16 2 -0.174311 6.50652 21.6443 5.86281 0 0 0
275 16 1 -0.050311 6.62811 21.8049 4.32684 0 0 0
276 16 1 -0.091211 6.11959 0.799102 3.86333 0 1 0
277 16 3 0.033922 9.44812 21.067 8.27928 0 0 0
278 16 3 0.033922 10.8632 21.4208 7.22623 0 0 0
279 16 3 0.033922 9.72966 20.1777 6.71362 0 0 0
280 16 3 0.046089 9.01871 0.798353 6.726 0 1 0
281 16 3 0.046089 9.3552 21.9628 5.41439 0 0 0
282 16 4 0.121889 7.39107 21.6414 7.79189 0 0 0
283 16 4 0.121889 5.53728 21.4889 6.32593 0 0 0
284 16 3 0.046089 6.07914 20.9775 3.86797 0 0 0
285 16 3 0.046089 7.68495 21.8038 4.04441 0 0 0
286 16 3 0.033922 6.48338 1.02266 2.85624 0 1 0
287 16 3 0.033922 5.04041 0.962519 3.93654 0 1 0
288 16 3 0.033922 6.71704 1.50963 4.44198 0 1 0
289 17 1 -0.091211 11.901 13.4502 14.0537 0 0 0
290 17 1 -0.050311 10.9616 14.2867 14.9254 0 0 0
291 17 2 -0.174311 10.005 15.0676 14.0667 0 0 0
292 17 2 -0.174311 9.71273 16.3218 14.2621 0 0 0
293 17 1 -0.050311 10.2083 17.147 15.423 0 0 0
294 17 1 -0.091211 9.62325 18.6076 15.4087 0 0 0
295 17 3 0.033922 11.3031 12.6151 13.6772 0 0 0
296 17 3 0.033922 12.7341 13.0872 14.6627 0 0 0
297 17 3 0.033922 12.3377 14.0058 13.2187 0 0 0
298 17 3 0.046089 10.3782 13.5761 15.5181 0 0 0
299 17 3 0.046089 11.5426 14.9776 15.5432 0 0 0
300 17 4 0.121889 9.61141 14.6088 13.1653 0 0 0
301 17 4 0.121889 9.11977 16.8116 13.4963 0 0 0
302 17 3 0.046089 11.3007 17.1758 15.3737 0 0 0
303 17 3 0.046089 9.86774 16.7972 16.4018 0 0 0
304 17 3 0.033922 10.1712 19.2686 16.0866 0 0 0
305 17 3 0.033922 9.60616 18.9411 14.3671 0 0 0
306 17 3 0.033922 8.58649 18.5751 15.7562 0 0 0
307 18 1 -0.091211 1.17867 11.6593 -0.317289 0 0 1
308 18 1 -0.050311 1.37367 10.9407 0.986213 0 0 1
309 18 2 -0.174311 0.726415 9.54067 1.04213 0 0 1
310 18 2 -0.174311 0.817779 8.8163 2.22243 0 0 1
311 18 1 -0.050311 1.07844 9.35289 3.63483 0 0 1
312 18 1 -0.091211 1.90263 8.35137 4.44012 0 0 1
313 18 3 0.033922 0.307577 11.2952 -0.869766 0 0 1
314 18 3 0.033922 2.12594 11.5714 -0.857284 0 0 1
315 18 3 0.033922 0.985064 12.7206 -0.136161 0 0 1
316 18 3 0.046089 2.39315 10.9706 1.38175 0 0 1
317 18 3 0.046089 0.847363 11.5739 1.70636 0 0 1
318 18 4 0.121889 0.350116 9.12365 0.113442 0 0 1
319 18 4 0.121889 0.632466 7.75238 2.11397 0 0 1
320 18 3 0.046089 0.156332 9.55312 4.18825 0 0 1
321 18 3 0.046089 1.57687 10.3236 3.55711 0 0 1
322 18 3 0.033922 1.20692 7.56729 4.75295 0 0 1
323 18 3 0.033922 2.67452 7.97339 3.76339 0 0 1
324 18 3 0.033922 2.30323 8.93527 5.2739 0 0 1
325 19 1 -0.091211 20.49 7.19842 22.6452 0 0 -1
326 19 1 -0.050311 19.6886 8.47282 -1.61503 0 0 0
327 19 2 -0.174311 18.5958 8.6717 21.9231 0 0 -1
328 19 2 -0.174311 17.2348 8.44864 22.0915 0 0 -1
329 19 1 -0.050311 16.5765 7.95204 -1.27824 0 0 0
330 19 1 -0.091211 15.1201 7.50017 -1.4755 0 0 0
331 19 3 0.033922 19.8296 6.32683 22.6742 0 0 -1
332 19 3 0.033922 21.1889 7.06638 -1.1663 0 0 0
333 19 3 0.033922 21.1033 7.18848 21.7394 0 0 -1
334 19 3 0.046089 19.2943 8.34076 -0.603291 0 0 0
335 19 3 0.046089 20.3453 9.3475 -1.63278 0 0 0
336 19 4 0.121889 18.9238 9.09975 20.9812 0 0 -1
337 19 4 0.121889 16.6159 8.69767 21.2354 0 0 -1
338 19 3 0.046089 16.6733 8.74041 -0.526108 0 0 0
339 19 3 0.046089 17.1918 7.10841 -0.952118 0 0 0
340 19 3 0.033922 14.9335 6.9924 22.2164 0 0 -1
341 19 3 0.033922 14.987 6.82996 -0.621281 0 0 0
342 19 3 0.033922 14.5385 8.42174 -1.38042 0 0 0
343 20 1 -0.091211 11.0649 21.8628 12.1702 0 -1 0
344 20 1 -0.050311 11.8782 -0.279079 13.4492 0 0 0
345 20 2 -0.174311 13.3375 21.7676 13.1656 0 -1 0
346 20 2 -0.174311 14.4083 21.9888 13.9789 0 -1 0
347 20 1 -0.050311 14.2998 0.143518 15.4502 0 0 0
348 20 1 -0.091211 14.3388 1.6432 15.624 0 0 0
349 20 3 0.033922 11.4836 0.299045 11.5057 0 0 0
350 20 3 0.033922 9.98337 -0.438769 12.333 0 0 0
351 20 3 0.033922 11.3039 20.8589 11.8073 0 -1 0
352 20 3 0.046089 11.7128 0.74245 13.8038 0 0 0
353 20 3 0.046089 11.6362 21.317 14.228 0 -1 0
354 20 4 0.121889 13.5343 21.372 12.1743 0 -1 0
355 20 4 0.121889 15.4438 21.8343 13.6928 0 -1 0
356 20 3 0.046089 15.0934 21.9492 15.9951 0 -1 0
357 20 3 0.046089 13.4154 -0.214377 15.9853 0 0 0
358 20 3 0.033922 15.0844 2.13019 14.9887 0 0 0
359 20 3 0.033922 13.3489 2.05002 15.3978 0 0 0
360 20 3 0.033922 14.5304 1.92754 16.6628 0 0 0
361 21 1 -0.091211 1.584 21.7826 20.3123 0 -1 0
362 21 1 -0.050311 0.337006 21.3168 21.0881 0 -1 0
363 21 2 -0.174311 0.559371 20.1566 21.9304 0 -1 0
364 21 2 -0.174311 38.7259 20.0107 -1.39207 -1 -1 1
365 21 1 -0.050311 37.7424 21.0187 -0.711416 -1 -1 1
366 21 1 -0.091211 37.0434 20.4066 0.473401 -1 -1 1
367 21 3 0.033922 2.24879 -0.0515324 21.029 0 0 0
368 21 3 0.033922 1.43967 0.168016 19.4931 0 0 0
369 21 3 0.033922 2.05663 20.874 19.9281 0 -1 0
370 21 3 0.046089 38.5601 -0.159966 21.6647 -1 0 0
371 21 3 0.046089 38.2193 20.9811 20.3369 -1 -1 0
372 21 4 0.121889 1.11298 19.2645 21.6551 0 -1 0
373 21 4 0.121889 0.439475 19.1311 -0.840693 0 -1 1
374 21 3 0.046089 37.0452 21.3445 -1.48885 -1 -1 1
375 21 3 0.046089 38.3108 21.9145 -0.444735 -1 -1 1
376 21 3 0.033922 37.7992 20.0897 1.19791 -1 -1 1
377 21 3 0.033922 36.4552 21.1912 0.958213 -1 -1 1
378 21 3 0.033922 36.4579 19.5363 0.162987 -1 -1 1
379 22 1 -0.091211 6.4385 1.14111 18.6279 0 0 0
380 22 1 -0.050311 5.99819 0.421606 17.3158 0 0 0
381 22 2 -0.174311 7.10557 21.9119 16.7814 0 -1 0
382 22 2 -0.174311 7.09213 21.3826 15.4937 0 -1 0
383 22 1 -0.050311 5.91824 21.3979 14.6086 0 -1 0
384 22 1 -0.091211 6.26939 20.8084 13.2763 0 -1 0
385 22 3 0.033922 6.86226 0.475907 19.3859 0 0 0
386 22 3 0.033922 5.50977 1.60769 18.9692 0 0 0
387 22 3 0.033922 7.19602 1.91275 18.4624 0 0 0
388 22 3 0.046089 5.11239 -0.20662 17.4476 0 0 0
389 22 3 0.046089 5.71858 1.23151 16.6357 0 0 0
390 22 4 0.121889 8.02107 21.7365 17.3374 0 -1 0
391 22 4 0.121889 8.02031 20.9006 15.2035 0 -1 0
392 22 3 0.046089 5.5404 0.0953781 14.5184 0 0 0
393 22 3 0.046089 5.17639 20.766 15.1056 0 -1 0
394 22 3 0.033922 6.95202 21.3467 12.6124 0 -1 0
395 22 3 0.033922 6.69979 19.829 13.5048 0 -1 0
396 22 3 0.033922 5.40759 20.6082 12.633 0 -1 0
397 23 1 -0.091211 7.28156 5.07319 1.07118 0 0 0
398 23 1 -0.050311 8.19923 5.28127 -0.114634 0 0 0
399 23 2 -0.174311 8.07123 6.73106 -0.619522 0 0 0
400 23 2 -0.174311 8.97119 7.67177 -0.242238 0 0 0
401 23 1 -0.050311 10.0818 7.51968 0.68832 0 0 0
402 23 1 -0.091211 11.3625 7.12653 -0.105434 0 0 0
403 23 3 0.033922 6.79727 4.09882 0.958476 0 0 0
404 23 3 0.033922 6.50641 5.84435 1.10454 0 0 0
405 23 3 0.033922 7.81051 5.04316 2.02821 0 0 0
406 23 3 0.046089 9.24364 5.01041 0.0657115 0 0 0
407 23 3 0.046089 7.83135 4.6037 -0.890618 0 0 0
408 23 4 0.121889 7.28981 6.95527 -1.33863 0 0 0
409 23 4 0.121889 8.94791 8.5843 -0.829392 0 0 0
410 23 3 0.046089 9.85434 6.75222 1.43387 0 0 0
411 23 3 0.046089 10.2697 8.45398 1.22536 0 0 0
412 23 3 0.033922 11.2258 6.21457 -0.693865 0 0 0
413 23 3 0.033922 11.4524 7.94654 -0.823843 0 0 0
414 23 3 0.033922 12.1877 6.91887 0.582083 0 0 0
415 24 1 -0.091211 4.68552 13.9935 1.88076 0 0 0
416 24 1 -0.050311 4.62579 13.4236 0.45979 0 0 0
417 24 2 -0.174311 5.88871 12.7025 0.0790584 0 0 0
418 24 2 -0.174311 6.97839 13.2426 -0.619164 0 0 0
419 24 1 -0.050311 6.95673 14.6761 -1.10914 0 0 0
420 24 1 -0.091211 7.71837 15.5629 -0.218133 0 0 0
421 24 3 0.033922 4.80228 13.1438 2.55975 0 0 0
422 24 3 0.033922 3.73602 14.4766 2.12924 0 0 0
423 24 3 0.033922 5.42868 14.7749 2.06451 0 0 0
424 24 3 0.046089 3.8368 12.6734 0.353302 0 0 0
425 24 3 0.046089 4.50324 14.2962 -0.188347 0 0 0
426 24 4 0.121889 6.05934 11.7779 0.621263 0 0 0
427 24 4 0.121889 7.92112 12.7102 -0.695763 0 0 0
428 24 3 0.046089 5.98101 15.161 -1.20682 0 0 0
429 24 3 0.046089 7.42281 14.7028 22.5442 0 0 -1
430 24 3 0.033922 8.69332 15.1157 -0.00330714 0 0 0
431 24 3 0.033922 7.90422 16.5201 -0.713993 0 0 0
432 24 3 0.033922 7.1425 15.7821 0.685718 0 0 0
433 25 1 -0.091211 6.93823 10.7174 14.0192 0 0 0
434 25 1 -0.050311 8.17443 9.87228 14.428 0 0 0
435 25 2 -0.174311 8.67216 9.00583 13.2883 0 0 0
436 25 2 -0.174311 8.57262 7.63003 13.2948 0 0 0
437 25 1 -0.050311 7.94849 6.74972 14.3023 0 0 0
438 25 1 -0.091211 7.90254 5.27989 13.735 0 0 0
439 25 3 0.033922 6.5127 11.1445 14.932 0 0 0
440 25 3 0.033922 6.14402 10.0714 13.6338 0 0 0
441 25 3 0.033922 7.24126 11.4717 13.2871 0 0 0
442 25 3 0.046089 8.88086 10.618 14.8041 0 0 0
443 25 3 0.046089 7.95575 9.24636 15.298 0 0 0
444 25 4 0.121889 9.01283 9.42123 12.3453 0 0 0
445 25 4 0.121889 9.05056 7.096 12.4797 0 0 0
446 25 3 0.046089 6.92465 7.06847 14.5187 0 0 0
447 25 3 0.046089 8.46316 6.71399 15.2668 0 0 0
448 25 3 0.033922 8.89739 4.95247 13.4192 0 0 0
449 25 3 0.033922 7.51456 4.56102 14.4625 0 0 0
450 25 3 0.033922 7.20436 5.25651 12.8932 0 0 0
451 26 1 -0.091211 2.31185 0.343242 15.114 0 0 0
452 26 1 -0.050311 1.47449 21.3646 15.191 0 -1 0
453 26 2 -0.174311 0.798536 21.3057 16.5723 0 -1 0
454 26 2 -0.174311 38.048 20.9864 16.7247 -1 -1 0
455 26 1 -0.050311 37.2059 20.3267 15.7214 -1 -1 0
456 26 1 -0.091211 36.0296 21.1463 15.2839 -1 -1 0
457 26 3 0.033922 1.77174 1.11369 15.672 0 0 0
458 26 3 0.033922 2.45571 0.656358 14.0758 0 0 0
459 26 3 0.033922 3.26176 0.2007 15.6375 0 0 0
460 26 3 0.046089 0.676667 21.3448 14.4428 0 -1 0
461 26 3 0.046089 2.16224 20.5232 15.0652 0 -1 0
462 26 4 0.121889 1.36271 -0.770097 17.4653 0 0 0
463 26 4 0.121889 37.7518 21.2632 17.7314 -1 -1 0
464 26 3 0.046089 36.7618 19.4255 16.1541 -1 -1 0
465 26 3 0.046089 37.7229 19.9895 14.8183 -1 -1 0
466 26 3 0.033922 35.5729 20.5622 14.4796 -1 -1 0
467 26 3 0.033922 35.3386 21.2436 16.1263 -1 -1 0
468 26 3 0.033922 36.3227 -0.203043 14.8856 -1 0 0
469 27 1 -0.091211 19.6195 13.0163 7.90261 0 0 0
470 27 1 -0.050311 20.1747 12.3369 6.58687 0 0 0
471 27 2 -0.174311 19.6382 13.0738 5.43897 0 0 0
472 27 2 -0.174311 19.0353 12.4585 4.34382 0 0 0
473 27 1 -0.050311 18.969 11.0214 4.01596 0 0 0
474 27 1 -0.091211 18.8985 10.5297 2.51901 0 0 0
475 27 3 0.033922 20.1641 12.6498 8.77764 0 0 0
476 27 3 0.033922 18.5319 12.9213 7.97256 0 0 0
477 27 3 0.033922 19.7818 14.0971 7.8559 0 0 0
478 27 3 0.046089 21.2658 12.4059 6.54758 0 0 0
479 27 3 0.046089 19.8689 11.2876 6.54231 0 0 0
480 27 4 0.121889 19.7702 14.1487 5.36679 0 0 0
481 27 4 0.121889 18.805 13.0927 3.49367 0 0 0
482 27 3 0.046089 18.0107 10.6734 4.41241 0 0 0
483 27 3 0.046089 19.7578 10.5029 4.56876 0 0 0
484 27 3 0.033922 18.0837 10.9851 1.94852 0 0 0
485 27 3 0.033922 19.857 10.6851 2.01532 0 0 0
486 27 3 0.033922 18.6724 9.45942 2.51808 0 0 0
487 28 1 -0.091211 10.1699 18.6017 1.73028 0 -1 0
488 28 1 -0.050311 8.7165 18.9138 1.4579 0 -1 0
489 28 2 -0.174311 7.91359 17.9086 2.1932 0 -1 0
490 28 2 -0.174311 6.51585 17.9227 2.10175 0 -1 0
491 28 1 -0.050311 5.60544 18.8321 1.3011 0 -1 0
492 28 1 -0.091211 4.18953 18.2147 1.25751 0 -1 0
493 28 3 0.033922 10.6894 19.4251 1.23143 0 -1 0
494 28 3 0.033922 10.3815 17.6006 1.34351 0 -1 0
495 28 3 0.033922 10.4212 18.5815 2.79469 0 -1 0
496 28 3 0.046089 8.43868 19.8485 1.95363 0 -1 0
497 28 3 0.046089 8.42937 18.9824 0.404612 0 -1 0
498 28 4 0.121889 8.39325 17.2001 2.86098 0 -1 0
499 28 4 0.121889 6.11626 17.1409 2.73987 0 -1 0
500 28 3 0.046089 6.03815 18.9763 0.306865 0 -1 0
501 28 3 0.046089 5.53811 19.8394 1.7223 0 -1 0
502 28 3 0.033922 3.59691 18.5563 0.403851 0 -1 0
503 28 3 0.033922 4.39246 17.148 1.12479 0 -1 0
504 28 3 0.033922 3.61941 18.4226 2.16765 0 -1 0
505 29 1 -0.091211 11.1528 5.16512 7.72587 0 0 0
506 29 1 -0.050311 10.0155 4.22089 7.35881 0 0 0
507 29 2 -0.174311 8.88899 4.41629 8.32583 0 0 0
508 29 2 -0.174311 8.30025 3.4571 9.13027 0 0 0
509 29 1 -0.050311 8.77787 2.06452 9.31834 0 0 0
510 29 1 -0.091211 8.6272 1.72401 10.7709 0 0 0
511 29 3 0.033922 11.3679 5.04953 8.79214 0 0 0
512 29 3 0.033922 10.8731 6.19818 7.49964 0 0 0
513 29 3 0.033922 12.0672 4.89894 7.18772 0 0 0
514 29 3 0.046089 9.67349 4.40118 6.33555 0 0 0
515 29 3 0.046089 10.4243 3.2104 7.26679 0 0 0
516 29 4 0.121889 8.45445 5.40052 8.18268 0 0 0
517 29 4 0.121889 7.33748 3.7443 9.54094 0 0 0
518 29 3 0.046089 9.81098 1.85651 9.02494 0 0 0
519 29 3 0.046089 8.14904 1.38448 8.73632 0 0 0
520 29 3 0.033922 7.6743 2.0854 11.1685 0 0 0
521 29 3 0.033922 8.57605 0.641991 10.9235 0 0 0
522 29 3 0.033922 9.47107 2.11505 11.3468 0 0 0
523 30 1 -0.091211 14.1493 15.1666 18.4395 0 0 0
524 30 1 -0.050311 13.0131 14.1928 18.9234 0 0 0
525 30 2 -0.174311 11.6762 14.9427 18.9898 0 0 0
526 30 2 -0.174311 11.2698 15.5643 20.1166 0 0 0
527 30 1 -0.050311 12.1208 15.9412 21.2568 0 0 0
528 30 1 -0.091211 11.4825 15.3726 22.5202 0 0 0
529 30 3 0.033922 15.1031 14.7025 18.7069 0 0 0
530 30 3 0.033922 14.19 16.1462 18.9247 0 0 0
531 30 3 0.033922 14.0179 15.3658 17.372 0 0 0
532 30 3 0.046089 12.9113 13.3524 18.2306 0 0 0
533 30 3 0.046089 13.2882 13.8412 19.922 0 0 0
534 30 4 0.121889 10.942 14.8438 18.1966 0 0 0
535 30 4 0.121889 10.3443 16.128 20.0546 0 0 0
536 30 3 0.046089 12.3234 17.0051 21.4106 0 0 0
537 30 3 0.046089 13.1149 15.4893 21.1928 0 0 0
538 30 3 0.033922 11.2276 14.3334 22.2928 0 0 0
539 30 3 0.033922 12.1528 15.3898 -1.25818 0 0 1
540 30 3 0.033922 10.5959 15.9476 22.803 0 0 0
541 31 1 -0.091211 20.6011 3.65606 16.3913 0 1 0
542 31 1 -0.050311 19.307 3.19612 17.1347 0 1 0
543 31 2 -0.174311 18.7028 1.9037 16.6353 0 1 0
544 31 2 -0.174311 17.908 1.07428 17.4047 0 1 0
545 31 1 -0.050311 17.4083 1.37386 18.7373 0 1 0
546 31 1 -0.091211 18.132 0.726565 19.9095 0 1 0
547 31 3 0.033922 20.2936 3.60569 15.3428 0 1 0
548 31 3 0.033922 21.3444 2.85527 16.4451 0 1 0
549 31 3 0.033922 21.036 4.60777 16.7103 0 1 0
550 31 3 0.046089 19.5535 3.08465 18.1946 0 1 0
551 31 3 0.046089 18.6227 4.0462 17.0583 0 1 0
552 31 4 0.121889 18.8448 1.69137 15.5804 0 1 0
553 31 4 0.121889 17.5098 0.186073 16.9246 0 1 0
554 31 3 0.046089 16.3428 1.13248 18.793 0 1 0
555 31 3 0.046089 17.3273 2.44702 18.9333 0 1 0
556 31 3 0.033922 18.1876 21.9595 19.9341 0 0 0
557 31 3 0.033922 19.1704 1.04406 19.7771 0 1 0
558 31 3 0.033922 17.8042 1.18413 20.8475 0 1 0
559 32 1 -0.091211 17.6674 21.631 1.26116 0 0 0
560 32 1 -0.050311 18.0485 21.8327 2.75151 0 0 0
561 32 2 -0.174311 17.1526 0.558719 3.32989 0 1 0
562 32 2 -0.174311 17.4478 1.35276 4.39336 0 1 0
563 32 1 -0.050311 18.8017 1.56195 5.02365 0 1 0
564 32 1 -0.091211 19.0864 0.457264 6.00902 0 1 0
565 32 3 0.033922 17.8639 0.177397 0.629881 0 1 0
566 32 3 0.033922 16.598 21.4034 1.29684 0 0 0
567 32 3 0.033922 18.2084 20.7527 0.897183 0 0 0
568 32 3 0.046089 17.8341 20.9736 3.39384 0 0 0
569 32 3 0.046089 19.1284 -0.353643 2.85728 0 1 0
570 32 4 0.121889 16.1042 0.564609 3.04914 0 1 0
571 32 4 0.121889 16.6658 2.01316 4.7544 0 1 0
572 32 3 0.046089 18.8945 2.55577 5.47124 0 1 0
573 32 3 0.046089 19.6486 1.532 4.33193 0 1 0
574 32 3 0.033922 20.0752 0.594346 6.45652 0 1 0
575 32 3 0.033922 18.3289 0.401598 6.79616 0 1 0
576 32 3 0.033922 18.8887 21.7919 5.58902 0 0 0
577 33 1 -0.091211 11.2104 14.7775 8.03632 0 0 0
578 33 1 -0.050311 11.7343 15.3216 9.39236 0 0 0
579 33 2 -0.174311 10.5227 15.5721 10.2019 0 0 0
580 33 2 -0.174311 10.1317 16.8741 10.7464 0 0 0
581 33 1 -0.050311 11.0653 18.0635 10.8171 0 0 0
582 33 1 -0.091211 12.125 17.978 11.8979 0 0 0
583 33 3 0.033922 10.6022 15.5823 7.61333 0 0 0
584 33 3 0.033922 10.6494 13.8388 8.00967 0 0 0
585 33 3 0.033922 12.1322 14.6831 7.45489 0 0 0
586 33 3 0.046089 12.3138 14.5539 9.91322 0 0 0
587 33 3 0.046089 12.3869 16.1967 9.32142 0 0 0
588 33 4 0.121889 9.909 14.7036 10.4192 0 0 0
589 33 4 0.121889 9.235 16.9029 11.3572 0 0 0
590 33 3 0.046089 10.4864 18.9587 11.0622 0 0 0
591 33 3 0.046089 11.5489 18.2501 9.85381 0 0 0
592 33 3 0.033922 12.8063 17.1382 11.7328 0 0 0
593 33 3 0.033922 12.7817 18.8465 12.0037 0 0 0
594 33 3 0.033922 11.7447 17.6765 12.8782 0 0 0
595 34 1 -0.091211 21.8389 16.0671 15.3616 0 0 0
596 34 1 -0.050311 21.4318 15.875 13.9453 0 0 0
597 34 2 -0.174311 22.3186 16.7276 12.9677 0 0 0
598 34 2 -0.174311 22.0046 17.289 11.7284 0 0 0
599 34 1 -0.050311 20.611 17.3538 11.1075 0 0 0
600 34 1 -0.091211 20.2925 16.0339 10.4863 0 0 0
601 34 3 0.033922 22.7755 15.5148 15.4819 0 0 0
602 34 3 0.033922 21.0893 15.6656 16.0496 0 0 0
603 34 3 0.033922 21.8952 17.1041 15.7053 0 0 0
604 34 3 0.046089 21.6185 14.8318 13.674 0 0 0
605 34 3 0.046089 20.3851 16.1662 13.8175 0 0 0
606 34 4 0.121889 23.3162 16.8431 13.3792 0 0 0
607 34 4 0.121889 22.7742 17.8513 11.2094 0 0 0
608 34 3 0.046089 20.5628 18.0891 10.299 0 0 0
609 34 3 0.046089 19.814 17.6338 11.8024 0 0 0
610 34 3 0.033922 19.991 15.3406 11.2768 0 0 0
611 34 3 0.033922 19.4473 16.1024 9.79513 0 0 0
612 34 3 0.033922 21.159 15.6069 9.97303 0 0 0
613 35 1 -0.091211 0.511431 14.6227 19.1529 0 0 0
614 35 1 -0.050311 1.32347 13.8908 18.0286 0 0 0
615 35 2 -0.174311 0.556973 12.5987 17.6126 0 0 0
616 35 2 -0.174311 1.27084 11.5756 16.9623 0 0 0
617 35 1 -0.050311 2.66561 11.5855 16.603 0 0 0