ITEM: TIMESTEP
7200
ITEM: NUMBER OF ATOMS
1800
ITEM: BOX BOUNDS pp pp pp
-3.4083881086413435e+00 4.2216403608640903e+01
-7.5401347205709612e-01 2.2362668972057360e+01
-1.1779635176905945e+00 2.2431697017690652e+01
ITEM: ATOMS id mol type q x y z ix iy iz
1 1 1 -0.091211 3.13759 13.8863 1.42771 0 -1 0
2 1 1 -0.050311 2.03295 14.8863 1.88323 0 -1 0
3 1 2 -0.174311 2.40123 15.486 3.22004 0 -1 0
4 1 2 -0.174311 1.49659 15.8296 4.18829 0 -1 0
5 1 1 -0.050311 -0.00987039 15.6328 4.14001 0 -1 0
6 1 1 -0.091211 -0.697013 15.8932 5.51268 0 -1 0
7 1 3 0.033922 4.11517 14.3751 1.47285 0 -1 0
8 1 3 0.033922 3.01339 13.4826 0.418677 0 -1 0
9 1 3 0.033922 3.15787 12.9783 2.0374 0 -1 0
10 1 3 0.046089 1.9908 15.6481 1.09938 0 -1 0
11 1 3 0.046089 1.13954 14.2553 1.89875 0 -1 0
12 1 4 0.121889 3.44102 15.7941 3.2629 0 -1 0
13 1 4 0.121889 1.92375 16.3231 5.05541 0 -1 0
14 1 3 0.046089 -0.314909 14.7008 3.65538 0 -1 0
15 1 3 0.046089 -0.388875 16.4021 3.46092 0 -1 0
16 1 3 0.033922 -1.76279 16.0267 5.30564 0 -1 0
17 1 3 0.033922 -0.587252 15.1114 6.26985 0 -1 0
18 1 3 0.033922 -0.19642 16.7895 5.8903 0 -1 0
19 2 1 -0.091211 9.45412 5.52873 11.9822 0 0 0
20 2 1 -0.050311 9.45027 4.0151 12.1525 0 0 0
21 2 2 -0.174311 8.02881 3.51086 12.1262 0 0 0
22 2 2 -0.174311 7.37921 2.80366 13.104 0 0 0
23 2 1 -0.050311 8.09537 2.51028 14.3723 0 0 0
24 2 1 -0.091211 7.14774 1.88056 15.3774 0 0 0
25 2 3 0.033922 9.13092 5.92378 12.9497 0 0 0
26 2 3 0.033922 8.80154 5.78525 11.1426 0 0 0
27 2 3 0.033922 10.4348 5.88902 11.6583 0 0 0
28 2 3 0.046089 9.89239 3.482 11.3058 0 0 0
29 2 3 0.046089 9.97922 3.81325 13.0885 0 0 0
30 2 4 0.121889 7.56912 3.6581 11.1541 0 0 0
31 2 4 0.121889 6.41839 2.30728 13.0125 0 0 0
32 2 3 0.046089 8.37424 3.50851 14.722 0 0 0
33 2 3 0.046089 9.00215 1.93809 14.1557 0 0 0
34 2 3 0.033922 6.81738 0.873125 15.1082 0 0 0
35 2 3 0.033922 7.69567 1.72755 16.3117 0 0 0
36 2 3 0.033922 6.24822 2.49223 15.4927 0 0 0
37 3 1 -0.091211 -3.42488 1.55171 13.0544 0 0 0
38 3 1 -0.050311 -2.60402 2.54062 12.2781 0 0 0
39 3 2 -0.174311 -3.11092 3.9541 12.5285 0 0 0
40 3 2 -0.174311 -3.07625 5.06363 11.7016 0 0 0
41 3 1 -0.050311 -2.44257 5.10218 10.3516 0 0 0
42 3 1 -0.091211 -2.54698 6.48755 9.74854 0 0 0
43 3 3 0.033922 -3.26279 1.75882 14.1162 0 0 0
44 3 3 0.033922 -3.27442 0.508943 12.7602 0 0 0
45 3 3 0.033922 41.1621 1.73006 12.7582 -1 0 0
46 3 3 0.046089 -1.54681 2.48677 12.5537 0 0 0
47 3 3 0.046089 -2.60258 2.28783 11.2138 0 0 0
48 3 4 0.121889 42.1038 4.14197 13.5156 -1 0 0
49 3 4 0.121889 42.2138 5.97378 12.189 -1 0 0
50 3 3 0.046089 -3.04347 4.40191 9.76414 0 0 0
51 3 3 0.046089 -1.40427 4.76856 10.4363 0 0 0
52 3 3 0.033922 -2.00051 6.49603 8.80096 0 0 0
53 3 3 0.033922 42.0932 6.96192 9.7025 -1 0 0
54 3 3 0.033922 -1.95886 7.17867 10.3593 0 0 0
55 4 1 -0.091211 5.51438 8.71176 2.97274 0 0 0
56 4 1 -0.050311 5.02826 7.70455 4.05152 0 0 0
57 4 2 -0.174311 3.68941 7.0406 3.58861 0 0 0
58 4 2 -0.174311 3.35539 5.73482 3.51403 0 0 0
59 4 1 -0.050311 4.2018 4.62013 3.96234 0 0 0
60 4 1 -0.091211 5.30219 4.26502 2.9494 0 0 0
61 4 3 0.033922 5.65137 8.11777 2.06444 0 0 0
62 4 3 0.033922 6.45578 9.23203 3.17182 0 0 0
63 4 3 0.033922 4.76295 9.47937 2.76615 0 0 0
64 4 3 0.046089 5.84599 6.99673 4.21544 0 0 0
65 4 3 0.046089 4.86368 8.17137 5.02702 0 0 0
66 4 4 0.121889 2.91383 7.73466 3.28086 0 0 0
67 4 4 0.121889 2.37332 5.42841 3.16819 0 0 0
68 4 3 0.046089 3.63625 3.69042 4.07344 0 0 0
69 4 3 0.046089 4.64008 4.83307 4.94171 0 0 0
70 4 3 0.033922 5.85003 3.40326 3.34156 0 0 0
71 4 3 0.033922 4.89063 4.04467 1.96012 0 0 0
72 4 3 0.033922 6.01075 5.09727 2.90636 0 0 0
73 5 1 -0.091211 0.159659 6.17469 5.29558 0 0 0
74 5 1 -0.050311 -0.843525 7.04703 4.66041 0 0 0
75 5 2 -0.174311 -1.53692 7.87153 5.70116 0 0 0
76 5 2 -0.174311 -2.67772 8.71131 5.65733 0 0 0
77 5 1 -0.050311 -3.3669 8.99225 4.38168 0 0 0
78 5 1 -0.091211 -2.93598 10.3873 3.89859 0 0 0
79 5 3 0.033922 1.02358 6.80904 5.5142 0 0 0
80 5 3 0.033922 0.481993 5.36159 4.63866 0 0 0
81 5 3 0.033922 -0.259308 5.78507 6.22792 0 0 0
82 5 3 0.046089 -0.329727 7.74912 3.99734 0 0 0
83 5 3 0.046089 -1.55263 6.49462 4.03704 0 0 0
84 5 4 0.121889 -1.05454 7.82755 6.67243 0 0 0
85 5 4 0.121889 -2.94714 9.24288 6.56443 0 0 0
86 5 3 0.046089 41.1701 9.02995 4.48998 -1 0 0
87 5 3 0.046089 -3.10822 8.25122 3.61975 0 0 0
88 5 3 0.033922 42.1125 10.7167 3.02913 -1 0 0
89 5 3 0.033922 -3.03292 11.131 4.69489 0 0 0
90 5 3 0.033922 -1.87251 10.3508 3.64512 0 0 0
91 6 1 -0.091211 10.244 6.77072 17.302 0 0 0
92 6 1 -0.050311 8.80428 7.0713 17.5359 0 0 0
93 6 2 -0.174311 8.41966 7.32158 19.0172 0 0 0
94 6 2 -0.174311 7.20798 7.9063 19.3284 0 0 0
95 6 1 -0.050311 6.11432 8.41112 18.406 0 0 0
96 6 1 -0.091211 5.64721 9.80214 18.8492 0 0 0
97 6 3 0.033922 10.9188 7.50569 17.7503 0 0 0
98 6 3 0.033922 10.2825 6.76136 16.2088 0 0 0
99 6 3 0.033922 10.4728 5.80217 17.756 0 0 0
100 6 3 0.046089 8.60424 7.94803 16.9131 0 0 0
101 6 3 0.046089 8.19529 6.2461 17.1555 0 0 0
102 6 4 0.121889 9.151 7.04008 19.7681 0 0 0
103 6 4 0.121889 7.05027 8.23597 20.3504 0 0 0
104 6 3 0.046089 5.20085 7.81017 18.4374 0 0 0
105 6 3 0.046089 6.47025 8.45906 17.3727 0 0 0
106 6 3 0.033922 4.7195 10.1057 18.3555 0 0 0
107 6 3 0.033922 5.50428 9.91045 19.9283 0 0 0
108 6 3 0.033922 6.41518 10.5138 18.5326 0 0 0
109 7 1 -0.091211 36.5638 17.4171 3.77742 -1 0 0
110 7 1 -0.050311 38.0046 16.8737 4.01369 -1 0 0
111 7 2 -0.174311 38.2014 15.3648 4.16593 -1 0 0
112 7 2 -0.174311 39.3589 14.7835 3.63062 -1 0 0
113 7 1 -0.050311 40.6059 15.5423 3.07282 -1 0 0
114 7 1 -0.091211 41.8418 14.5986 3.03339 -1 0 0
115 7 3 0.033922 35.8682 17.033 4.5292 -1 0 0
116 7 3 0.033922 36.1704 17.1407 2.79484 -1 0 0
117 7 3 0.033922 36.5167 18.5098 3.78936 -1 0 0
118 7 3 0.046089 38.5488 17.1875 3.11817 -1 0 0
119 7 3 0.046089 38.3957 17.4103 4.88299 -1 0 0
120 7 4 0.121889 37.4746 14.7506 4.68798 -1 0 0
121 7 4 0.121889 39.5472 13.7147 3.6381 -1 0 0
122 7 3 0.046089 40.7881 16.3856 3.74525 -1 0 0
123 7 3 0.046089 40.3285 15.9042 2.07851 -1 0 0
124 7 3 0.033922 -2.88423 15.1939 2.84763 0 0 0
125 7 3 0.033922 41.9246 14.2168 4.05512 -1 0 0
126 7 3 0.033922 41.6636 13.7554 2.35981 -1 0 0
127 8 1 -0.091211 41.4094 9.23715 14.4218 -1 0 0
128 8 1 -0.050311 42.0763 9.35753 13.0703 -1 0 0
129 8 2 -0.174311 -2.10731 8.94242 13.1558 0 0 0
130 8 2 -0.174311 -1.08272 9.58107 12.5096 0 0 0
131 8 1 -0.050311 -1.26582 10.8275 11.6464 0 0 0
132 8 1 -0.091211 0.0263455 11.5508 11.2201 0 0 0
133 8 3 0.033922 40.3888 9.62092 14.3337 -1 0 0
134 8 3 0.033922 41.9731 9.8529 15.1286 -1 0 0
135 8 3 0.033922 41.3912 8.19411 14.7508 -1 0 0
136 8 3 0.046089 41.6348 8.61489 12.3994 -1 0 0
137 8 3 0.046089 41.9236 10.355 12.6481 -1 0 0
138 8 4 0.121889 -1.84073 8.11855 13.8101 0 0 0
139 8 4 0.121889 -0.0934358 9.23785 12.795 0 0 0
140 8 3 0.046089 -1.81006 11.6321 12.1493 0 0 0
141 8 3 0.046089 -1.9319 10.6249 10.8027 0 0 0
142 8 3 0.033922 -0.218292 12.3999 10.5753 0 0 0
143 8 3 0.033922 0.555331 11.8616 12.1258 0 0 0
144 8 3 0.033922 0.652337 10.8138 10.7087 0 0 0
145 9 1 -0.091211 -2.8739 5.71683 18.3901 0 0 0
146 9 1 -0.050311 -1.67097 6.64969 18.3025 0 0 0
147 9 2 -0.174311 -0.401734 5.9662 18.0171 0 0 0
148 9 2 -0.174311 0.897937 6.49756 17.9024 0 0 0
149 9 1 -0.050311 1.21708 7.98444 18.1183 0 0 0
150 9 1 -0.091211 2.06052 8.03283 19.3817 0 0 0
151 9 3 0.033922 -2.80267 4.89461 17.6722 0 0 0
152 9 3 0.033922 41.8879 6.35553 18.1807 -1 0 0
153 9 3 0.033922 -2.89876 5.34916 19.4201 0 0 0
154 9 3 0.046089 -1.78936 7.42758 17.5426 0 0 0
155 9 3 0.046089 -1.59865 7.20185 19.244 0 0 0
156 9 4 0.121889 -0.449452 4.91064 17.7691 0 0 0
157 9 4 0.121889 1.57099 5.70106 17.6015 0 0 0
158 9 3 0.046089 0.335496 8.62013 18.2418 0 0 0
159 9 3 0.046089 1.78136 8.39427 17.2756 0 0 0
160 9 3 0.033922 2.16542 9.07756 19.6885 0 0 0
161 9 3 0.033922 1.65418 7.38615 20.1649 0 0 0
162 9 3 0.033922 3.0486 7.64315 19.1202 0 0 0
163 10 1 -0.091211 39.3479 8.40986 19.8289 -1 0 0
164 10 1 -0.050311 40.5267 9.08356 20.6571 -1 0 0
165 10 2 -0.174311 41.1431 7.94328 21.497 -1 0 0
166 10 2 -0.174311 42.1589 8.24848 22.3868 -1 0 0
167 10 1 -0.050311 -2.80687 9.6335 -0.905462 0 0 1
168 10 1 -0.091211 -2.42215 9.60488 0.575484 0 0 1
169 10 3 0.033922 39.5067 7.4824 19.2711 -1 0 0
170 10 3 0.033922 39.05 9.21948 19.1564 -1 0 0
171 10 3 0.033922 38.5157 8.23512 20.5169 -1 0 0
172 10 3 0.046089 41.2864 9.45766 19.9646 -1 0 0
173 10 3 0.046089 40.1455 9.90181 21.2749 -1 0 0
174 10 4 0.121889 40.8782 6.89745 21.3787 -1 0 0
175 10 4 0.121889 -3.08401 7.32053 -0.809308 0 0 1
176 10 3 0.046089 42.1713 10.4834 -1.14248 -1 0 1
177 10 3 0.046089 -1.94831 9.72634 22.0328 0 0 0
178 10 3 0.033922 -1.4453 9.13233 0.713401 0 0 1
179 10 3 0.033922 -2.26962 10.6586 0.826285 0 0 1
180 10 3 0.033922 -3.16687 9.10537 1.20195 0 0 1
181 11 1 -0.091211 40.1225 13.3661 -0.75844 -1 0 0
182 11 1 -0.050311 40.7599 14.2663 21.8063 -1 0 -1
183 11 2 -0.174311 41.7711 15.1181 -1.12122 -1 0 0
184 11 2 -0.174311 -2.63394 15.4945 21.9688 0 0 -1
185 11 1 -0.050311 -1.91312 15.2074 20.6595 0 0 -1
186 11 1 -0.091211 -1.84907 16.5221 19.9023 0 0 -1
187 11 3 0.033922 40.9356 12.929 -0.17166 -1 0 0
188 11 3 0.033922 39.4831 12.5919 22.4173 -1 0 -1
189 11 3 0.033922 39.473 13.9723 -0.120283 -1 0 0
190 11 3 0.046089 41.3252 13.7261 21.0412 -1 0 -1
191 11 3 0.046089 39.9882 14.7784 21.2243 -1 0 -1
192 11 4 0.121889 41.5237 15.3851 -0.09869 -1 0 0
193 11 4 0.121889 -2.0779 16.0776 -0.913708 0 0 0
194 11 3 0.046089 -2.43572 14.424 20.1031 0 0 -1
195 11 3 0.046089 -0.91451 14.8134 20.8696 0 0 -1
196 11 3 0.033922 -1.32249 16.446 18.9465 0 0 -1
197 11 3 0.033922 -2.84286 16.9529 19.7495 0 0 -1
198 11 3 0.033922 -1.34826 17.3007 20.485 0 0 -1
199 12 1 -0.091211 -1.58831 18.6061 1.77662 0 0 0
200 12 1 -0.050311 -2.48907 18.6926 3.03027 0 0 0
201 12 2 -0.174311 -3.20165 20.0175 3.10021 0 0 0
202 12 2 -0.174311 41.7525 20.6093 4.16639 -1 0 0
203 12 1 -0.050311 41.3255 19.8576 5.43369 -1 0 0
204 12 1 -0.091211 41.7205 20.4487 6.75654 -1 0 0
205 12 3 0.033922 -1.80094 19.4528 1.1175 0 0 0
206 12 3 0.033922 -1.75759 17.6517 1.26969 0 0 0
207 12 3 0.033922 -0.541242 18.5066 2.07713 0 0 0
208 12 3 0.046089 -3.24628 17.9268 2.83865 0 0 0
209 12 3 0.046089 -1.89867 18.4546 3.91988 0 0 0
210 12 4 0.121889 -3.14041 20.6459 2.21737 0 0 0
211 12 4 0.121889 41.345 21.6035 4.01313 -1 0 0
212 12 3 0.046089 41.5966 18.7984 5.40189 -1 0 0
213 12 3 0.046089 40.2458 19.7616 5.28697 -1 0 0
214 12 3 0.033922 40.8036 20.6395 7.32189 -1 0 0
215 12 3 0.033922 -3.34931 19.687 7.31176 0 0 0
216 12 3 0.033922 -3.31407 21.3467 6.55224 0 0 0
217 13 1 -0.091211 1.4649 10.5029 3.41371 0 0 0
218 13 1 -0.050311 1.90757 11.6009 4.38695 0 0 0
219 13 2 -0.174311 1.72356 11.1242 5.85493 0 0 0
220 13 2 -0.174311 1.91308 11.9298 6.96627 0 0 0
221 13 1 -0.050311 2.32985 13.3908 6.93762 0 0 0
222 13 1 -0.091211 1.414 14.2127 7.91053 0 0 0
223 13 3 0.033922 1.64571 10.8028 2.3774 0 0 0
224 13 3 0.033922 0.407415 10.2507 3.53493 0 0 0
225 13 3 0.033922 1.99661 9.54953 3.48441 0 0 0
226 13 3 0.046089 2.96836 11.8227 4.23836 0 0 0
227 13 3 0.046089 1.30182 12.4969 4.22343 0 0 0
228 13 4 0.121889 1.3391 10.158 6.16567 0 0 0
229 13 4 0.121889 1.61938 11.5016 7.91935 0 0 0
230 13 3 0.046089 2.11285 13.8357 5.96212 0 0 0
231 13 3 0.046089 3.39314 13.4266 7.19196 0 0 0
232 13 3 0.033922 1.22436 15.1942 7.46628 0 0 0
233 13 3 0.033922 0.404122 13.8021 8.00025 0 0 0
234 13 3 0.033922 1.81257 14.283 8.9268 0 0 0
235 14 1 -0.091211 4.27297 14.4212 11.2487 0 0 0
236 14 1 -0.050311 3.92143 13.0385 11.7025 0 0 0
237 14 2 -0.174311 4.82203 12.5208 12.8375 0 0 0
238 14 2 -0.174311 4.32035 11.8721 13.9555 0 0 0
239 14 1 -0.050311 2.94214 11.4439 14.2046 0 0 0
240 14 1 -0.091211 2.82271 10.9801 15.6803 0 0 0
241 14 3 0.033922 4.06221 15.1198 12.0636 0 0 0
242 14 3 0.033922 3.64838 14.8356 10.452 0 0 0
243 14 3 0.033922 5.31758 14.4347 10.9244 0 0 0
244 14 3 0.046089 2.89546 13.0785 12.0797 0 0 0
245 14 3 0.046089 3.92887 12.341 10.8599 0 0 0
246 14 4 0.121889 5.87018 12.7918 12.9141 0 0 0
247 14 4 0.121889 5.09848 11.502 14.6155 0 0 0
248 14 3 0.046089 2.65084 10.6168 13.5506 0 0 0
249 14 3 0.046089 2.25257 12.2799 14.0556 0 0 0
250 14 3 0.033922 3.26644 10.0123 15.9313 0 0 0
251 14 3 0.033922 3.17016 11.7602 16.3639 0 0 0
252 14 3 0.033922 1.75164 10.9044 15.8891 0 0 0
253 15 1 -0.091211 1.26967 18.5883 17.4326 0 0 0
254 15 1 -0.050311 2.04594 17.285 17.7797 0 0 0
255 15 2 -0.174311 2.02345 16.2497 16.6953 0 0 0
256 15 2 -0.174311 3.12826 15.8429 15.9756 0 0 0
257 15 1 -0.050311 4.53891 16.4272 16.0341 0 0 0
258 15 1 -0.091211 5.34937 15.6586 14.9857 0 0 0
259 15 3 0.033922 1.35237 18.9483 16.4029 0 0 0
260 15 3 0.033922 1.64363 19.3767 18.0922 0 0 0
261 15 3 0.033922 0.187393 18.5117 17.5716 0 0 0
262 15 3 0.046089 3.07535 17.6371 17.8935 0 0 0
263 15 3 0.046089 1.70999 16.9854 18.7767 0 0 0
264 15 4 0.121889 1.15428 15.6734 16.3947 0 0 0
265 15 4 0.121889 3.01106 15.0071 15.2932 0 0 0
266 15 3 0.046089 5.0475 16.4199 17.0025 0 0 0
267 15 3 0.046089 4.55707 17.4832 15.7493 0 0 0
268 15 3 0.033922 5.20319 14.5911 15.1747 0 0 0
269 15 3 0.033922 5.11097 15.883 13.9419 0 0 0
270 15 3 0.033922 6.38928 15.9631 15.1354 0 0 0
271 16 1 -0.091211 6.58236 18.1077 3.10993 0 0 0
272 16 1 -0.050311 5.28425 18.0071 3.99156 0 0 0
273 16 2 -0.174311 4.05064 18.5974 3.27312 0 0 0
274 16 2 -0.174311 3.07125 19.4592 3.72667 0 0 0
275 16 1 -0.050311 3.01827 20.254 5.02072 0 0 0
276 16 1 -0.091211 1.89158 19.6423 5.87553 0 0 0
277 16 3 0.033922 6.24163 17.6983 2.15447 0 0 0
278 16 3 0.033922 7.45639 17.5723 3.49209 0 0 0
279 16 3 0.033922 6.85826 19.1611 3.00644 0 0 0
280 16 3 0.046089 5.11834 16.9562 4.24595 0 0 0
281 16 3 0.046089 5.51043 18.5935 4.88687 0 0 0
282 16 4 0.121889 3.89101 18.1059 2.31868 0 0 0
283 16 4 0.121889 2.1841 19.5501 3.10808 0 0 0
284 16 3 0.046089 2.73207 21.282 4.78025 0 0 0
285 16 3 0.046089 3.98511 20.2763 5.53189 0 0 0
286 16 3 0.033922 1.57905 20.2192 6.75082 0 0 0
287 16 3 0.033922 0.925544 19.4523 5.39886 0 0 0
288 16 3 0.033922 2.23435 18.7153 6.34415 0 0 0
289 17 1 -0.091211 8.17764 14.9609 8.2663 0 0 0
290 17 1 -0.050311 6.82168 15.7009 8.09135 0 0 0
291 17 2 -0.174311 7.00071 17.1636 8.2763 0 0 0
292 17 2 -0.174311 5.96106 18.0339 8.61765 0 0 0
293 17 1 -0.050311 4.68932 17.6069 9.22716 0 0 0
294 17 1 -0.091211 3.7768 18.7552 9.4757 0 0 0
295 17 3 0.033922 8.86418 15.3241 7.49603 0 0 0
296 17 3 0.033922 7.97526 13.9065 8.05669 0 0 0
297 17 3 0.033922 8.55897 15.16 9.27206 0 0 0
298 17 3 0.046089 6.49439 15.5707 7.05572 0 0 0
299 17 3 0.046089 6.0868 15.2883 8.78867 0 0 0
300 17 4 0.121889 7.97732 17.5725 8.0377 0 0 0
301 17 4 0.121889 6.2282 19.0855 8.64452 0 0 0
302 17 3 0.046089 4.91091 17.0846 10.1624 0 0 0
303 17 3 0.046089 4.25116 16.8943 8.52232 0 0 0
304 17 3 0.033922 2.86135 18.3265 9.89367 0 0 0
305 17 3 0.033922 4.24879 19.4451 10.1812 0 0 0
306 17 3 0.033922 3.5851 19.3636 8.58702 0 0 0
307 18 1 -0.091211 0.255201 4.24024 0.46966 0 1 1
308 18 1 -0.050311 -0.366593 2.87705 0.122682 0 1 1
309 18 2 -0.174311 0.206465 2.20336 22.5127 0 1 0
310 18 2 -0.174311 0.748804 0.951111 22.5306 0 1 0
311 18 1 -0.050311 1.06501 0.162391 0.210167 0 1 1
312 18 1 -0.091211 2.24667 -0.797293 0.116111 0 1 1
313 18 3 0.033922 -0.29882 5.02954 -0.0466961 0 1 1
314 18 3 0.033922 1.26981 4.30071 0.0653374 0 1 1
315 18 3 0.033922 0.272746 4.35014 1.55788 0 1 1
316 18 3 0.046089 -0.407087 2.20842 0.987492 0 1 1
317 18 3 0.046089 -1.41114 3.14237 -0.0645924 0 1 1
318 18 4 0.121889 0.0480984 2.72283 21.573 0 1 0
319 18 4 0.121889 1.0975 0.491708 21.6112 0 1 0
320 18 3 0.046089 0.16452 -0.422188 0.419768 0 1 1
321 18 3 0.046089 1.17848 0.829804 1.0694 0 1 1
322 18 3 0.033922 2.34828 21.7706 1.05694 0 0 1
323 18 3 0.033922 2.13557 21.5982 -0.698813 0 0 1
324 18 3 0.033922 3.16098 -0.219697 -0.0481078 0 1 1
325 19 1 -0.091211 14.1925 20.9963 2.06214 0 -1 0
326 19 1 -0.050311 14.9033 22.2269 1.51406 0 -1 0
327 19 2 -0.174311 14.227 0.406658 1.89836 0 0 0
328 19 2 -0.174311 14.7231 1.59709 1.36479 0 0 0
329 19 1 -0.050311 16.048 1.71427 0.652707 0 0 0
330 19 1 -0.091211 17.2186 1.94041 1.58151 0 0 0
331 19 3 0.033922 14.0892 21.1363 3.14212 0 -1 0
332 19 3 0.033922 14.7558 20.085 1.84133 0 -1 0
333 19 3 0.033922 13.2357 20.843 1.55461 0 -1 0
334 19 3 0.046089 15.8715 22.2618 2.02198 0 -1 0
335 19 3 0.046089 15.194 22.0506 0.474323 0 -1 0
336 19 4 0.121889 13.2666 0.315888 2.39578 0 0 0
337 19 4 0.121889 14.0326 2.41159 1.55905 0 0 0
338 19 3 0.046089 16.0963 2.56706 -0.0306555 0 0 0
339 19 3 0.046089 16.2627 0.88301 -0.0251661 0 0 0
340 19 3 0.033922 17.1269 1.12582 2.30581 0 0 0
341 19 3 0.033922 18.1376 1.7193 1.03087 0 0 0
342 19 3 0.033922 17.3161 2.87439 2.14253 0 0 0
343 20 1 -0.091211 13.6313 3.31737 6.64858 0 0 0
344 20 1 -0.050311 12.2473 3.77382 7.17178 0 0 0
345 20 2 -0.174311 11.2248 3.02283 6.40284 0 0 0
346 20 2 -0.174311 9.93103 3.45922 6.23991 0 0 0
347 20 1 -0.050311 9.36996 4.73995 6.75248 0 0 0
348 20 1 -0.091211 9.47811 5.87698 5.75447 0 0 0
349 20 3 0.033922 13.8273 2.32143 7.05632 0 0 0
350 20 3 0.033922 14.4302 3.98058 6.99277 0 0 0
351 20 3 0.033922 13.657 3.32057 5.55498 0 0 0
352 20 3 0.046089 12.2025 3.6553 8.25832 0 0 0
353 20 3 0.046089 12.1718 4.84939 6.98742 0 0 0
354 20 4 0.121889 11.5693 2.09656 5.95419 0 0 0
355 20 4 0.121889 9.31463 2.84481 5.59145 0 0 0
356 20 3 0.046089 9.90747 4.96565 7.67809 0 0 0
357 20 3 0.046089 8.37781 4.48245 7.13442 0 0 0
358 20 3 0.033922 9.14058 6.79148 6.25079 0 0 0
359 20 3 0.033922 10.5449 5.95194 5.52468 0 0 0
360 20 3 0.033922 8.91107 5.73598 4.82971 0 0 0
361 21 1 -0.091211 8.07242 0.86987 21.0632 0 0 0
362 21 1 -0.050311 6.62942 0.965957 20.574 0 0 0
363 21 2 -0.174311 6.59718 0.31406 19.1763 0 0 0
364 21 2 -0.174311 5.50214 0.502564 18.3423 0 0 0
365 21 1 -0.050311 4.15658 0.972355 18.8349 0 0 0
366 21 1 -0.091211 3.28182 -0.207849 19.3664 0 0 0
367 21 3 0.033922 8.30513 -0.198917 21.0535 0 0 0
368 21 3 0.033922 8.18354 1.2014 22.0997 0 0 0
369 21 3 0.033922 8.79386 1.44296 20.4735 0 0 0
370 21 3 0.046089 5.95385 0.405586 21.2269 0 0 0
371 21 3 0.046089 6.34963 2.02331 20.5905 0 0 0
372 21 4 0.121889 7.49525 -0.124808 18.7534 0 0 0
373 21 4 0.121889 5.59448 0.0375583 17.366 0 0 0
374 21 3 0.046089 3.67344 1.5312 18.0282 0 0 0
375 21 3 0.046089 4.18106 1.67957 19.6691 0 0 0
376 21 3 0.033922 2.26411 -0.121994 18.9747 0 0 0
377 21 3 0.033922 3.6715 21.9249 19.0898 0 -1 0
378 21 3 0.033922 3.21127 -0.274546 20.456 0 0 0
379 22 1 -0.091211 11.0968 0.249993 -0.164424 0 0 1
380 22 1 -0.050311 9.98635 0.574653 0.814462 0 0 1
381 22 2 -0.174311 8.72012 -0.28105 0.59678 0 0 1
382 22 2 -0.174311 7.56325 -0.00443889 1.24576 0 0 1
383 22 1 -0.050311 7.41315 1.05949 2.34306 0 0 1
384 22 1 -0.091211 7.44738 0.598505 3.77529 0 0 1
385 22 3 0.033922 11.2853 22.2892 -0.172419 0 -1 1
386 22 3 0.033922 12.0193 0.773424 0.103365 0 0 1
387 22 3 0.033922 10.8224 0.533049 -1.18481 0 0 1
388 22 3 0.046089 10.3504 0.37999 1.82748 0 0 1
389 22 3 0.046089 9.77768 1.63573 0.649749 0 0 1
390 22 4 0.121889 8.72111 22.0915 -0.193287 0 -1 1
391 22 4 0.121889 6.6673 -0.579052 1.03356 0 0 1
392 22 3 0.046089 6.41895 1.48331 2.17422 0 0 1
393 22 3 0.046089 8.19857 1.81023 2.21637 0 0 1
394 22 3 0.033922 7.2171 1.4631 4.40459 0 0 1
395 22 3 0.033922 6.80275 -0.26366 3.96939 0 0 1
396 22 3 0.033922 8.46544 0.358617 4.09553 0 0 1
397 23 1 -0.091211 9.83142 5.67502 0.522517 0 0 0
398 23 1 -0.050311 10.9453 5.62292 1.51483 0 0 0
399 23 2 -0.174311 12.0974 6.55527 1.14593 0 0 0
400 23 2 -0.174311 13.3993 6.40951 1.5809 0 0 0
401 23 1 -0.050311 13.879 5.32872 2.59265 0 0 0
402 23 1 -0.091211 15.378 5.27324 2.57848 0 0 0
403 23 3 0.033922 9.18944 6.55902 0.576975 0 0 0
404 23 3 0.033922 9.10128 4.86528 0.610624 0 0 0
405 23 3 0.033922 10.3677 5.54753 -0.422338 0 0 0
406 23 3 0.046089 10.5884 5.80053 2.53351 0 0 0
407 23 3 0.046089 11.2563 4.57537 1.46522 0 0 0
408 23 4 0.121889 11.89 7.36064 0.448539 0 0 0
409 23 4 0.121889 14.1695 7.07197 1.19902 0 0 0
410 23 3 0.046089 13.5234 4.34237 2.28086 0 0 0
411 23 3 0.046089 13.4561 5.74586 3.51118 0 0 0
412 23 3 0.033922 15.7057 4.3884 3.13187 0 0 0
413 23 3 0.033922 15.8525 5.12174 1.60457 0 0 0
414 23 3 0.033922 15.7208 6.16677 3.10826 0 0 0
415 24 1 -0.091211 7.69546 14.5147 0.721298 0 0 0
416 24 1 -0.050311 7.6142 14.459 2.23028 0 0 0
417 24 2 -0.174311 7.15688 13.014 2.63583 0 0 0
418 24 2 -0.174311 6.77019 12.6184 3.88395 0 0 0
419 24 1 -0.050311 6.54819 13.4485 5.12251 0 0 0
420 24 1 -0.091211 6.18466 12.5059 6.25347 0 0 0
421 24 3 0.033922 8.68163 14.1461 0.424406 0 0 0
422 24 3 0.033922 7.61552 15.4654 0.18617 0 0 0
423 24 3 0.033922 6.96365 13.8277 0.286496 0 0 0
424 24 3 0.046089 8.57826 14.5422 2.7404 0 0 0
425 24 3 0.046089 6.92341 15.2201 2.60469 0 0 0
426 24 4 0.121889 7.24877 12.1992 1.92477 0 0 0
427 24 4 0.121889 6.52406 11.5687 4.00791 0 0 0
428 24 3 0.046089 5.73335 14.1548 4.9389 0 0 0
429 24 3 0.046089 7.44493 14.0153 5.38935 0 0 0
430 24 3 0.033922 5.42695 11.7918 5.91808 0 0 0
431 24 3 0.033922 7.13144 11.9806 6.40899 0 0 0
432 24 3 0.033922 5.90411 12.9779 7.1996 0 0 0
433 25 1 -0.091211 6.56145 6.95537 7.75611 0 0 0
434 25 1 -0.050311 5.86936 6.97806 9.08708 0 0 0
435 25 2 -0.174311 6.05898 8.32525 9.54039 0 0 0
436 25 2 -0.174311 5.15393 9.26458 9.7378 0 0 0
437 25 1 -0.050311 3.73625 9.23509 9.1926 0 0 0
438 25 1 -0.091211 2.80872 8.66034 10.2604 0 0 0
439 25 3 0.033922 5.93708 7.54118 7.07526 0 0 0
440 25 3 0.033922 6.69316 5.95951 7.32313 0 0 0
441 25 3 0.033922 7.56227 7.38645 7.8514 0 0 0
442 25 3 0.046089 4.81741 6.68238 9.13728 0 0 0
443 25 3 0.046089 6.37953 6.29803 9.77546 0 0 0
444 25 4 0.121889 7.10788 8.53565 9.7234 0 0 0
445 25 4 0.121889 5.49192 10.1772 10.2183 0 0 0
446 25 3 0.046089 3.68913 8.58593 8.31342 0 0 0
447 25 3 0.046089 3.30247 10.221 9.00189 0 0 0
448 25 3 0.033922 2.8907 9.2483 11.1792 0 0 0
449 25 3 0.033922 1.81135 8.73063 9.8167 0 0 0
450 25 3 0.033922 3.06399 7.61871 10.4758 0 0 0
451 26 1 -0.091211 4.42267 4.73788 17.2958 0 0 0
452 26 1 -0.050311 4.05228 5.47305 16.001 0 0 0
453 26 2 -0.174311 3.91594 4.46573 14.9308 0 0 0
454 26 2 -0.174311 3.95898 4.88397 13.6419 0 0 0
455 26 1 -0.050311 4.16323 6.33573 13.1368 0 0 0
456 26 1 -0.091211 5.61625 6.59934 12.8272 0 0 0
457 26 3 0.033922 3.63144 4.01202 17.5047 0 0 0
458 26 3 0.033922 4.45146 5.4056 18.1618 0 0 0
459 26 3 0.033922 5.36783 4.21456 17.1245 0 0 0
460 26 3 0.046089 3.10022 6.00619 16.0778 0 0 0
461 26 3 0.046089 4.72872 6.29166 15.7386 0 0 0
462 26 4 0.121889 3.59595 3.4854 15.2692 0 0 0
463 26 4 0.121889 3.75013 4.15635 12.8641 0 0 0
464 26 3 0.046089 3.81564 7.09112 13.8475 0 0 0
465 26 3 0.046089 3.6409 6.50902 12.1914 0 0 0
466 26 3 0.033922 5.83051 7.57927 12.3909 0 0 0
467 26 3 0.033922 6.3096 6.43821 13.6578 0 0 0
468 26 3 0.033922 5.99762 5.95111 12.0329 0 0 0
469 27 1 -0.091211 12.9745 3.5765 22.4807 0 0 0
470 27 1 -0.050311 12.9085 4.05022 21.0011 0 0 0
471 27 2 -0.174311 12.3026 5.40198 20.7151 0 0 0
472 27 2 -0.174311 12.8992 6.41579 20.0354 0 0 0
473 27 1 -0.050311 14.2223 6.34564 19.374 0 0 0
474 27 1 -0.091211 14.0212 5.634 18.0572 0 0 0
475 27 3 0.033922 13.2663 2.52243 -1.14817 0 0 1
476 27 3 0.033922 11.9761 3.68323 -0.695096 0 0 1
477 27 3 0.033922 13.6273 4.17342 -0.485437 0 0 1
478 27 3 0.046089 13.8969 3.97328 20.5387 0 0 0
479 27 3 0.046089 12.3083 3.30244 20.4747 0 0 0
480 27 4 0.121889 11.3143 5.55281 21.1376 0 0 0
481 27 4 0.121889 12.2673 7.27052 19.8162 0 0 0
482 27 3 0.046089 14.9779 5.84287 19.9847 0 0 0
483 27 3 0.046089 14.5484 7.36241 19.1365 0 0 0
484 27 3 0.033922 14.9406 5.74109 17.4743 0 0 0
485 27 3 0.033922 13.7196 4.58806 18.1649 0 0 0
486 27 3 0.033922 13.2417 6.07773 17.4311 0 0 0
487 28 1 -0.091211 3.87558 10.4293 -0.241261 0 0 0
488 28 1 -0.050311 4.40024 9.20149 -0.863045 0 0 0
489 28 2 -0.174311 3.94035 7.97826 -0.0775254 0 0 0
490 28 2 -0.174311 4.38533 6.73496 -0.364755 0 0 0
491 28 1 -0.050311 5.23945 6.15648 22.1066 0 0 -1
492 28 1 -0.091211 4.56741 4.86993 21.6698 0 0 -1
493 28 3 0.033922 4.08363 11.3325 -0.822179 0 0 0
494 28 3 0.033922 4.38129 10.5593 0.719974 0 0 0
495 28 3 0.033922 2.7918 10.4271 -0.093019 0 0 0
496 28 3 0.046089 4.03772 9.18016 21.7148 0 0 -1
497 28 3 0.046089 5.48873 9.30905 -0.8757 0 0 0
498 28 4 0.121889 3.3171 8.11107 0.801056 0 0 0
499 28 4 0.121889 4.10235 5.94386 0.322304 0 0 0
500 28 3 0.046089 6.2237 5.97631 -1.06109 0 0 0
501 28 3 0.046089 5.26555 6.87713 21.284 0 0 -1
502 28 3 0.033922 4.83433 4.70164 20.6224 0 0 -1
503 28 3 0.033922 4.97189 4.0832 22.3133 0 0 -1
504 28 3 0.033922 3.48205 4.94584 21.7829 0 0 -1
505 29 1 -0.091211 13.6156 11.6419 13.3632 0 0 0
506 29 1 -0.050311 12.4614 11.172 12.4301 0 0 0
507 29 2 -0.174311 11.1882 11.6492 13.095 0 0 0
508 29 2 -0.174311 9.97703 11.0899 12.8546 0 0 0
509 29 1 -0.050311 9.66383 9.93975 11.8383 0 0 0
510 29 1 -0.091211 8.59359 9.06595 12.468 0 0 0
511 29 3 0.033922 13.6008 11.1531 14.3417 0 0 0
512 29 3 0.033922 13.5794 12.7328 13.4343 0 0 0
513 29 3 0.033922 14.5303 11.3682 12.8294 0 0 0
514 29 3 0.046089 12.6767 11.5881 11.4416 0 0 0
515 29 3 0.046089 12.4864 10.0969 12.23 0 0 0
516 29 4 0.121889 11.2752 12.4394 13.8339 0 0 0
517 29 4 0.121889 9.17433 11.4663 13.4807 0 0 0
518 29 3 0.046089 10.5502 9.35641 11.5726 0 0 0
519 29 3 0.046089 9.30486 10.4285 10.9279 0 0 0
520 29 3 0.033922 8.97742 8.6849 13.4188 0 0 0
521 29 3 0.033922 7.70481 9.63172 12.7622 0 0 0
522 29 3 0.033922 8.31208 8.26817 11.7746 0 0 0
523 30 1 -0.091211 11.1636 10.8105 20.9109 0 0 0
524 30 1 -0.050311 10.4089 11.3377 19.6945 0 0 0
525 30 2 -0.174311 11.0796 10.8484 18.4614 0 0 0
526 30 2 -0.174311 10.449 10.8096 17.2438 0 0 0
527 30 1 -0.050311 9.02436 11.1049 16.954 0 0 0
528 30 1 -0.091211 8.73818 12.6289 17.1589 0 0 0
529 30 3 0.033922 11.3865 9.7407 20.8612 0 0 0
530 30 3 0.033922 10.5662 11.023 21.8022 0 0 0
531 30 3 0.033922 12.1148 11.3493 20.9476 0 0 0
532 30 3 0.046089 9.37531 10.9874 19.7688 0 0 0
533 30 3 0.046089 10.3731 12.431 19.7025 0 0 0
534 30 4 0.121889 12.161 10.8364 18.5533 0 0 0
535 30 4 0.121889 11.1107 10.5588 16.4209 0 0 0
536 30 3 0.046089 8.52615 10.5301 17.7401 0 0 0
537 30 3 0.046089 8.78505 10.7422 15.9501 0 0 0
538 30 3 0.033922 9.31794 13.1189 16.3713 0 0 0
539 30 3 0.033922 7.69911 12.952 17.0472 0 0 0
540 30 3 0.033922 9.12982 12.9427 18.1308 0 0 0
541 31 1 -0.091211 10.9989 18.6986 18.4994 0 0 0
542 31 1 -0.050311 11.4539 19.2284 19.9014 0 0 0
543 31 2 -0.174311 10.2159 19.7559 20.6595 0 0 0
544 31 2 -0.174311 9.75349 19.4553 21.994 0 0 0
545 31 1 -0.050311 10.4809 18.5484 -0.658429 0 0 1
546 31 1 -0.091211 9.57471 17.3865 -0.265018 0 0 1
547 31 3 0.033922 11.8978 18.5991 17.884 0 0 0
548 31 3 0.033922 10.3765 19.5064 18.1037 0 0 0
549 31 3 0.033922 10.3829 17.8003 18.6004 0 0 0
550 31 3 0.046089 11.8748 18.3644 20.4239 0 0 0
551 31 3 0.046089 12.1545 20.0662 19.8395 0 0 0
552 31 4 0.121889 9.72481 20.6249 20.2333 0 0 0
553 31 4 0.121889 8.90278 20.0308 22.3447 0 0 0
554 31 3 0.046089 10.7418 19.1312 0.229751 0 0 1
555 31 3 0.046089 11.3626 18.071 -1.09585 0 0 1
556 31 3 0.033922 8.56011 17.7359 -0.0526819 0 0 1
557 31 3 0.033922 9.56296 16.6081 -1.0335 0 0 1
558 31 3 0.033922 10.0376 16.9893 0.643033 0 0 1
559 32 1 -0.091211 13.9756 16.0716 2.64223 0 0 0
560 32 1 -0.050311 15.3728 16.744 2.84035 0 0 0
561 32 2 -0.174311 15.5804 17.1326 4.22827 0 0 0
562 32 2 -0.174311 16.6561 17.9278 4.60815 0 0 0
563 32 1 -0.050311 17.7586 18.4823 3.74058 0 0 0
564 32 1 -0.091211 18.4074 19.5726 4.49361 0 0 0
565 32 3 0.033922 13.8541 15.3089 3.41689 0 0 0
566 32 3 0.033922 13.9598 15.4996 1.70993 0 0 0
567 32 3 0.033922 13.1775 16.8196 2.63345 0 0 0
568 32 3 0.046089 16.1545 16.0332 2.55696 0 0 0
569 32 3 0.046089 15.5 17.5522 2.11431 0 0 0
570 32 4 0.121889 14.8658 16.8455 4.99308 0 0 0
571 32 4 0.121889 16.6078 18.2128 5.65431 0 0 0
572 32 3 0.046089 17.3079 18.7745 2.78764 0 0 0
573 32 3 0.046089 18.5373 17.7323 3.5737 0 0 0
574 32 3 0.033922 19.1111 20.1267 3.86573 0 0 0
575 32 3 0.033922 17.6424 20.3048 4.76784 0 0 0
576 32 3 0.033922 18.8741 19.1807 5.40202 0 0 0
577 33 1 -0.091211 10.356 -0.333575 8.57913 0 1 0
578 33 1 -0.050311 8.93299 -0.728942 8.27755 0 1 0
579 33 2 -0.174311 8.29958 21.3642 9.17002 0 0 0
580 33 2 -0.174311 7.3378 21.6298 10.126 0 0 0
581 33 1 -0.050311 6.78161 -0.130604 10.567 0 1 0
582 33 1 -0.091211 6.01227 -0.289539 11.8263 0 1 0
583 33 3 0.033922 10.8539 22.0028 9.16213 0 0 0
584 33 3 0.033922 10.3741 0.612796 9.12742 0 1 0
585 33 3 0.033922 10.9444 -0.232788 7.66247 0 1 0
586 33 3 0.046089 8.33012 0.176897 8.38958 0 1 0
587 33 3 0.046089 8.83452 22.0401 7.24505 0 0 0
588 33 4 0.121889 8.43848 20.3154 8.9277 0 0 0
589 33 4 0.121889 6.91297 20.7228 10.544 0 0 0
590 33 3 0.046089 6.08644 0.264789 9.82066 0 1 0
591 33 3 0.046089 7.6801 0.454796 10.7828 0 1 0
592 33 3 0.033922 6.71149 22.4844 12.5946 0 0 0
593 33 3 0.033922 5.60474 0.701339 12.0469 0 1 0
594 33 3 0.033922 5.18419 22.1391 11.6327 0 0 0
595 34 1 -0.091211 13.1278 15.1652 21.1095 0 0 0
596 34 1 -0.050311 13.644 14.2585 20.0688 0 0 0
597 34 2 -0.174311 14.2237 15.1902 19.0126 0 0 0
598 34 2 -0.174311 13.8665 15.1856 17.6961 0 0 0
599 34 1 -0.050311 12.6884 14.4144 17.0585 0 0 0
600 34 1 -0.091211 13.2343 13.147 16.4743 0 0 0
601 34 3 0.033922 13.8781 15.8632 21.4922 0 0 0
602 34 3 0.033922 12.7095 14.5177 21.8856 0 0 0
603 34 3 0.033922 12.3298 15.8404 20.7872 0 0 0
604 34 3 0.046089 14.4676 13.6639 20.4746 0 0 0
605 34 3 0.046089 12.9073 13.5955 19.606 0 0 0
606 34 4 0.121889 15.0237 15.8598 19.3118 0 0 0
607 34 4 0.121889 14.3404 15.9433 17.0802 0 0 0
608 34 3 0.046089 12.0422 14.8594 16.2963 0 0 0
609 34 3 0.046089 12.0194 14.2649 17.911 0 0 0
610 34 3 0.033922 13.8486 12.6555 17.2342 0 0 0
611 34 3 0.033922 12.4419 12.4946 16.0961 0 0 0
612 34 3 0.033922 13.8449 13.3809 15.5974 0 0 0
613 35 1 -0.091211 4.81463 12.7797 19.4706 0 0 0
614 35 1 -0.050311 4.21357 14.1986 19.1198 0 0 0
615 35 2 -0.174311 3.25743 14.6319 20.175 0 0 0
616 35 2 -0.174311 1.94 14.497 20.2593 0 0 0