ITEM: TIMESTEP
7700
ITEM: NUMBER OF ATOMS
1800
ITEM: BOX BOUNDS pp pp pp
-3.1201334690950233e+00 4.1928148969094714e+01
-6.5335727966420798e-01 2.2262012779664502e+01
-1.3406292124416055e+00 2.2594362712441690e+01
ITEM: ATOMS id mol type q x y z ix iy iz
1 1 1 -0.091211 2.01684 13.7989 0.244957 0 -1 0
2 1 1 -0.050311 0.959342 14.4144 1.22799 0 -1 0
3 1 2 -0.174311 1.70787 14.7529 2.53856 0 -1 0
4 1 2 -0.174311 1.30673 15.8458 3.36702 0 -1 0
5 1 1 -0.050311 0.188305 16.7628 2.89197 0 -1 0
6 1 1 -0.091211 -0.74489 17.0061 4.07062 0 -1 0
7 1 3 0.033922 2.84793 14.4743 0.0219166 0 -1 0
8 1 3 0.033922 1.52533 13.5968 -0.7112 0 -1 0
9 1 3 0.033922 2.50122 12.8996 0.636453 0 -1 0
10 1 3 0.046089 0.57551 15.3005 0.714066 0 -1 0
11 1 3 0.046089 0.15528 13.6854 1.36439 0 -1 0
12 1 4 0.121889 2.52432 14.1021 2.83511 0 -1 0
13 1 4 0.121889 1.89065 16.2392 4.19301 0 -1 0
14 1 3 0.046089 -0.383625 16.3029 2.08074 0 -1 0
15 1 3 0.046089 0.696151 17.6688 2.54883 0 -1 0
16 1 3 0.033922 -1.44266 17.8092 3.81621 0 -1 0
17 1 3 0.033922 -1.30969 16.1199 4.37438 0 -1 0
18 1 3 0.033922 -0.220716 17.4473 4.92339 0 -1 0
19 2 1 -0.091211 10.4762 3.55235 11.2244 0 0 0
20 2 1 -0.050311 9.55134 2.88017 12.2613 0 0 0
21 2 2 -0.174311 9.94159 1.60908 12.8029 0 0 0
22 2 2 -0.174311 10.0114 1.36986 14.1564 0 0 0
23 2 1 -0.050311 9.77667 2.32773 15.3605 0 0 0
24 2 1 -0.091211 9.11255 1.60674 16.5784 0 0 0
25 2 3 0.033922 10.5321 3.00849 10.2769 0 0 0
26 2 3 0.033922 11.4909 3.63814 11.6239 0 0 0
27 2 3 0.033922 10.1792 4.57716 10.9834 0 0 0
28 2 3 0.046089 9.41572 3.58289 13.0886 0 0 0
29 2 3 0.046089 8.54127 2.80562 11.848 0 0 0
30 2 4 0.121889 10.2136 0.770938 12.1692 0 0 0
31 2 4 0.121889 10.4805 0.422878 14.4036 0 0 0
32 2 3 0.046089 9.14724 3.17163 15.0635 0 0 0
33 2 3 0.046089 10.7012 2.72267 15.7915 0 0 0
34 2 3 0.033922 9.74618 0.755662 16.8445 0 0 0
35 2 3 0.033922 8.99605 2.23893 17.4635 0 0 0
36 2 3 0.033922 8.12411 1.18694 16.3703 0 0 0
37 3 1 -0.091211 -2.82935 4.03984 14.3855 0 0 0
38 3 1 -0.050311 -2.30299 4.81145 13.1824 0 0 0
39 3 2 -0.174311 41.6177 5.54813 12.4904 -1 0 0
40 3 2 -0.174311 41.6366 6.02534 11.1807 -1 0 0
41 3 1 -0.050311 -2.2251 6.05486 10.3115 0 0 0
42 3 1 -0.091211 -1.56238 7.45817 10.0999 0 0 0
43 3 3 0.033922 41.6509 4.68373 15.0632 -1 0 0
44 3 3 0.033922 -2.01832 3.4949 14.8773 0 0 0
45 3 3 0.033922 41.5143 3.31907 13.9605 -1 0 0
46 3 3 0.046089 -1.54612 5.53188 13.5059 0 0 0
47 3 3 0.046089 -1.7636 4.17648 12.4735 0 0 0
48 3 4 0.121889 40.7205 5.79062 13.051 -1 0 0
49 3 4 0.121889 40.8108 6.57732 10.7434 -1 0 0
50 3 3 0.046089 -2.60537 5.72814 9.33922 0 0 0
51 3 3 0.046089 -1.35476 5.46728 10.6179 0 0 0
52 3 3 0.033922 -0.671811 7.37255 9.47044 0 0 0
53 3 3 0.033922 -2.19619 8.17966 9.57609 0 0 0
54 3 3 0.033922 -1.2191 7.84129 11.0653 0 0 0
55 4 1 -0.091211 7.16867 7.41108 3.27903 0 0 0
56 4 1 -0.050311 6.21957 7.45007 4.36336 0 0 0
57 4 2 -0.174311 4.79549 7.22068 3.82134 0 0 0
58 4 2 -0.174311 4.20692 5.97789 3.59475 0 0 0
59 4 1 -0.050311 4.75425 4.65359 4.01006 0 0 0
60 4 1 -0.091211 5.08354 4.00317 2.60702 0 0 0
61 4 3 0.033922 7.22438 6.43729 2.78383 0 0 0
62 4 3 0.033922 8.15554 7.66917 3.67409 0 0 0
63 4 3 0.033922 6.91288 8.18896 2.55369 0 0 0
64 4 3 0.046089 6.43779 6.75323 5.17788 0 0 0
65 4 3 0.046089 6.21765 8.44655 4.81459 0 0 0
66 4 4 0.121889 4.24107 8.11801 3.56562 0 0 0
67 4 4 0.121889 3.23246 5.93664 3.11861 0 0 0
68 4 3 0.046089 4.03292 4.07774 4.59718 0 0 0
69 4 3 0.046089 5.63287 4.72168 4.65815 0 0 0
70 4 3 0.033922 5.20601 2.91929 2.68933 0 0 0
71 4 3 0.033922 4.28675 4.13332 1.86889 0 0 0
72 4 3 0.033922 6.06088 4.32928 2.23953 0 0 0
73 5 1 -0.091211 -1.3988 6.24636 6.48759 0 0 0
74 5 1 -0.050311 -1.60382 7.50813 5.68333 0 0 0
75 5 2 -0.174311 -0.790777 8.63698 6.32515 0 0 0
76 5 2 -0.174311 -1.12937 9.9788 6.28328 0 0 0
77 5 1 -0.050311 -2.16248 10.5614 5.31251 0 0 0
78 5 1 -0.091211 -1.46475 11.7089 4.53225 0 0 0
79 5 3 0.033922 -0.35162 5.93131 6.46057 0 0 0
80 5 3 0.033922 -1.96242 5.52442 5.88946 0 0 0
81 5 3 0.033922 -1.81975 6.27341 7.49693 0 0 0
82 5 3 0.046089 -1.28047 7.28566 4.66223 0 0 0
83 5 3 0.046089 -2.68426 7.67742 5.70713 0 0 0
84 5 4 0.121889 0.0943539 8.43831 6.92104 0 0 0
85 5 4 0.121889 -0.467676 10.6373 6.83698 0 0 0
86 5 3 0.046089 -3.0133 10.9862 5.85309 0 0 0
87 5 3 0.046089 -2.48995 9.81924 4.57859 0 0 0
88 5 3 0.033922 -2.12526 11.9338 3.68977 0 0 0
89 5 3 0.033922 -1.20097 12.5779 5.142 0 0 0
90 5 3 0.033922 -0.541438 11.231 4.19201 0 0 0
91 6 1 -0.091211 9.25703 5.22147 18.4896 0 0 0
92 6 1 -0.050311 8.21083 6.24406 18.2539 0 0 0
93 6 2 -0.174311 8.22151 7.30566 19.3675 0 0 0
94 6 2 -0.174311 7.33521 8.30322 19.5086 0 0 0
95 6 1 -0.050311 6.29787 8.61141 18.5308 0 0 0
96 6 1 -0.091211 5.50991 9.91053 18.7666 0 0 0
97 6 3 0.033922 10.213 5.74408 18.5877 0 0 0
98 6 3 0.033922 9.25492 4.435 17.7293 0 0 0
99 6 3 0.033922 8.98546 4.79298 19.4588 0 0 0
100 6 3 0.046089 8.36474 6.79451 17.3211 0 0 0
101 6 3 0.046089 7.23329 5.75411 18.2846 0 0 0
102 6 4 0.121889 9.0587 7.3101 20.0582 0 0 0
103 6 4 0.121889 7.40692 8.92925 20.3923 0 0 0
104 6 3 0.046089 5.59254 7.7777 18.4676 0 0 0
105 6 3 0.046089 6.74592 8.7495 17.5425 0 0 0
106 6 3 0.033922 4.60954 9.89758 18.1455 0 0 0
107 6 3 0.033922 5.12938 10.0072 19.7876 0 0 0
108 6 3 0.033922 6.0524 10.7873 18.4011 0 0 0
109 7 1 -0.091211 36.347 14.8329 3.94557 -1 0 0
110 7 1 -0.050311 37.6905 15.4134 3.58185 -1 0 0
111 7 2 -0.174311 38.89 14.73 4.28351 -1 0 0
112 7 2 -0.174311 40.1287 14.5813 3.7471 -1 0 0
113 7 1 -0.050311 40.5791 14.9022 2.32002 -1 0 0
114 7 1 -0.091211 41.549 13.7604 2.05067 -1 0 0
115 7 3 0.033922 36.0692 14.968 4.99497 -1 0 0
116 7 3 0.033922 36.2948 13.7566 3.75732 -1 0 0
117 7 3 0.033922 35.6033 15.2607 3.26694 -1 0 0
118 7 3 0.046089 37.7324 15.431 2.48885 -1 0 0
119 7 3 0.046089 37.6867 16.4525 3.92388 -1 0 0
120 7 4 0.121889 38.6998 14.2204 5.22278 -1 0 0
121 7 4 0.121889 40.8878 14.082 4.34086 -1 0 0
122 7 3 0.046089 41.1144 15.8527 2.23879 -1 0 0
123 7 3 0.046089 39.8087 14.8256 1.54722 -1 0 0
124 7 3 0.033922 41.9478 13.8716 1.0381 -1 0 0
125 7 3 0.033922 -2.67212 13.8229 2.76382 0 0 0
126 7 3 0.033922 41.0168 12.8102 2.15316 -1 0 0
127 8 1 -0.091211 -2.57654 9.40135 14.0833 0 0 0
128 8 1 -0.050311 -1.87711 10.7412 13.7074 0 0 0
129 8 2 -0.174311 -0.458872 10.2532 13.3197 0 0 0
130 8 2 -0.174311 0.27457 10.4987 12.1339 0 0 0
131 8 1 -0.050311 -0.0321668 11.5467 11.0642 0 0 0
132 8 1 -0.091211 -0.12015 10.8518 9.75671 0 0 0
133 8 3 0.033922 41.4114 9.57368 14.2898 -1 0 0
134 8 3 0.033922 -2.19882 8.9994 15.028 0 0 0
135 8 3 0.033922 -2.48259 8.63715 13.3062 0 0 0
136 8 3 0.046089 -2.39643 11.1489 12.8352 0 0 0
137 8 3 0.046089 -1.83764 11.4597 14.5314 0 0 0
138 8 4 0.121889 0.142358 9.69572 14.0309 0 0 0
139 8 4 0.121889 1.22124 9.98784 11.9897 0 0 0
140 8 3 0.046089 0.814187 12.2385 11.1043 0 0 0
141 8 3 0.046089 -1.02846 11.9346 11.2955 0 0 0
142 8 3 0.033922 -0.513077 11.5467 9.00874 0 0 0
143 8 3 0.033922 0.828466 10.4051 9.44494 0 0 0
144 8 3 0.033922 -0.890417 10.08 9.844 0 0 0
145 9 1 -0.091211 -2.05939 5.39993 17.6955 0 0 0
146 9 1 -0.050311 -1.42106 6.77059 17.5846 0 0 0
147 9 2 -0.174311 -0.0460526 6.46726 17.0426 0 0 0
148 9 2 -0.174311 1.11753 7.14343 17.3495 0 0 0
149 9 1 -0.050311 1.3836 8.27463 18.3022 0 0 0
150 9 1 -0.091211 2.02367 7.81793 19.5855 0 0 0
151 9 3 0.033922 -2.16176 4.90119 16.7273 0 0 0
152 9 3 0.033922 41.9638 5.58829 18.0277 -1 0 0
153 9 3 0.033922 -1.55855 4.73356 18.4038 0 0 0
154 9 3 0.046089 -1.95958 7.29733 16.7914 0 0 0
155 9 3 0.046089 -1.31323 7.30413 18.5335 0 0 0
156 9 4 0.121889 -0.0370313 5.74148 16.2356 0 0 0
157 9 4 0.121889 2.02048 6.78728 16.8639 0 0 0
158 9 3 0.046089 0.406529 8.69593 18.556 0 0 0
159 9 3 0.046089 2.06436 8.96096 17.7902 0 0 0
160 9 3 0.033922 2.20123 8.69766 20.2109 0 0 0
161 9 3 0.033922 1.43845 7.06677 20.1239 0 0 0
162 9 3 0.033922 3.00486 7.39333 19.354 0 0 0
163 10 1 -0.091211 40.9246 9.32618 19.4447 -1 0 0
164 10 1 -0.050311 -2.89302 9.6314 20.4237 0 0 0
165 10 2 -0.174311 -2.5381 8.38681 21.0929 0 0 0
166 10 2 -0.174311 -1.85308 8.22753 22.2114 0 0 0
167 10 1 -0.050311 -1.34237 9.38979 -0.925624 0 0 1
168 10 1 -0.091211 -1.6673 9.08907 0.527267 0 0 1
169 10 3 0.033922 41.2739 8.9311 18.4863 -1 0 0
170 10 3 0.033922 40.2366 10.1432 19.2087 -1 0 0
171 10 3 0.033922 40.2838 8.54585 19.8656 -1 0 0
172 10 3 0.046089 -2.05375 9.99717 19.825 0 0 0
173 10 3 0.046089 41.8724 10.4067 21.1417 -1 0 0
174 10 4 0.121889 -2.65078 7.48819 20.4948 0 0 0
175 10 4 0.121889 -1.60286 7.27825 22.6742 0 0 0
176 10 3 0.046089 -1.81363 10.318 -1.26175 0 0 1
177 10 3 0.046089 -0.260308 9.4366 -1.07903 0 0 1
178 10 3 0.033922 -1.34886 8.0738 0.781002 0 0 1
179 10 3 0.033922 -1.11289 9.72903 1.21988 0 0 1
180 10 3 0.033922 -2.74525 9.23024 0.648412 0 0 1
181 11 1 -0.091211 38.84 12.0376 21.3154 -1 0 -1
182 11 1 -0.050311 39.1897 13.4376 20.8569 -1 0 -1
183 11 2 -0.174311 39.9225 14.1192 22.0062 -1 0 -1
184 11 2 -0.174311 41.1166 14.8958 21.9562 -1 0 -1
185 11 1 -0.050311 41.8234 15.3937 20.7037 -1 0 -1
186 11 1 -0.091211 -2.6084 16.7444 21.1128 0 0 -1
187 11 3 0.033922 39.6936 11.5082 21.7486 -1 0 -1
188 11 3 0.033922 38.5446 11.5689 20.3722 -1 0 -1
189 11 3 0.033922 37.9453 12.1107 21.9407 -1 0 -1
190 11 3 0.046089 39.8558 13.3621 19.9925 -1 0 -1
191 11 3 0.046089 38.2601 13.9816 20.6657 -1 0 -1
192 11 4 0.121889 39.5941 13.884 -0.921342 -1 0 0
193 11 4 0.121889 41.5859 15.2023 -1.04934 -1 0 0
194 11 3 0.046089 41.1432 15.4106 19.8471 -1 0 -1
195 11 3 0.046089 -2.34988 14.7508 20.5711 0 0 -1
196 11 3 0.033922 -1.90271 17.1204 20.3663 0 0 -1
197 11 3 0.033922 41.6627 17.5018 21.2506 -1 0 -1
198 11 3 0.033922 -2.06399 16.6498 22.0569 0 0 -1
199 12 1 -0.091211 -2.71534 21.0726 3.23387 0 0 0
200 12 1 -0.050311 41.851 20.66 4.65322 -1 0 0
201 12 2 -0.174311 40.6755 21.4875 5.1247 -1 0 0
202 12 2 -0.174311 40.4642 21.6838 6.5026 -1 0 0
203 12 1 -0.050311 41.4913 21.3969 7.52252 -1 0 0
204 12 1 -0.091211 41.3566 -0.581827 8.76321 -1 1 0
205 12 3 0.033922 41.5568 21.2465 2.48292 -1 0 0
206 12 3 0.033922 -2.01548 20.3329 2.83437 0 0 0
207 12 3 0.033922 -2.08369 21.9617 3.31748 0 0 0
208 12 3 0.046089 41.5058 19.6348 4.49128 -1 0 0
209 12 3 0.046089 -2.33704 20.6804 5.32867 0 0 0
210 12 4 0.121889 39.932 21.9077 4.4549 -1 0 0
211 12 4 0.121889 39.6088 -0.639167 6.81145 -1 1 0
212 12 3 0.046089 -2.55714 21.5336 7.10038 0 0 0
213 12 3 0.046089 41.4909 20.3378 7.79616 -1 0 0
214 12 3 0.033922 40.7713 21.8721 9.56391 -1 0 0
215 12 3 0.033922 -2.7019 -0.431596 9.2041 0 1 0
216 12 3 0.033922 40.904 0.377216 8.49494 -1 1 0
217 13 1 -0.091211 2.5134 10.7808 3.88583 0 0 0
218 13 1 -0.050311 2.40626 12.0536 4.65069 0 0 0
219 13 2 -0.174311 2.18006 11.7679 6.10703 0 0 0
220 13 2 -0.174311 1.84657 12.7496 7.07762 0 0 0
221 13 1 -0.050311 1.73669 14.257 6.8987 0 0 0
222 13 1 -0.091211 0.502279 14.9098 7.54635 0 0 0
223 13 3 0.033922 2.62095 10.971 2.81395 0 0 0
224 13 3 0.033922 1.62886 10.1507 4.01679 0 0 0
225 13 3 0.033922 3.31949 10.107 4.19061 0 0 0
226 13 3 0.046089 3.29641 12.6816 4.5513 0 0 0
227 13 3 0.046089 1.56863 12.6737 4.31835 0 0 0
228 13 4 0.121889 2.06001 10.715 6.34161 0 0 0
229 13 4 0.121889 1.51844 12.3786 8.0434 0 0 0
230 13 3 0.046089 1.56731 14.4638 5.83792 0 0 0
231 13 3 0.046089 2.66592 14.7818 7.13894 0 0 0
232 13 3 0.033922 0.656125 15.9924 7.51563 0 0 0
233 13 3 0.033922 -0.384948 14.6865 6.9467 0 0 0
234 13 3 0.033922 0.302865 14.4798 8.53223 0 0 0
235 14 1 -0.091211 6.57448 13.6055 12.133 0 0 0
236 14 1 -0.050311 5.13007 13.3719 11.9165 0 0 0
237 14 2 -0.174311 4.61906 11.9445 12.0742 0 0 0
238 14 2 -0.174311 3.60934 11.5807 12.9874 0 0 0
239 14 1 -0.050311 2.93249 12.441 14.0311 0 0 0
240 14 1 -0.091211 3.25208 11.9917 15.4709 0 0 0
241 14 3 0.033922 6.71805 13.5419 13.2156 0 0 0
242 14 3 0.033922 6.83852 14.6038 11.7721 0 0 0
243 14 3 0.033922 7.11287 12.8423 11.5635 0 0 0
244 14 3 0.046089 4.62312 14.0392 12.6195 0 0 0
245 14 3 0.046089 4.93383 13.6351 10.8729 0 0 0
246 14 4 0.121889 4.96656 11.1918 11.3737 0 0 0
247 14 4 0.121889 3.30185 10.5401 13.0122 0 0 0
248 14 3 0.046089 1.86065 12.3966 13.8171 0 0 0
249 14 3 0.046089 3.08148 13.5094 13.8495 0 0 0
250 14 3 0.033922 3.07817 10.915 15.5546 0 0 0
251 14 3 0.033922 4.30381 12.1109 15.747 0 0 0
252 14 3 0.033922 2.59931 12.5614 16.1387 0 0 0
253 15 1 -0.091211 0.445088 19.0492 18.18 0 0 0
254 15 1 -0.050311 1.66085 18.2469 17.6666 0 0 0
255 15 2 -0.174311 1.32033 17.2002 16.621 0 0 0
256 15 2 -0.174311 1.92317 15.9404 16.4486 0 0 0
257 15 1 -0.050311 3.10611 15.3789 17.2447 0 0 0
258 15 1 -0.091211 4.31579 15.217 16.4174 0 0 0
259 15 3 0.033922 -0.0482212 19.5197 17.3245 0 0 0
260 15 3 0.033922 0.874033 19.8385 18.8041 0 0 0
261 15 3 0.033922 -0.264472 18.4852 18.7924 0 0 0
262 15 3 0.046089 2.30541 18.9579 17.1417 0 0 0
263 15 3 0.046089 2.19595 17.808 18.5138 0 0 0
264 15 4 0.121889 0.502185 17.4908 15.9697 0 0 0
265 15 4 0.121889 1.61899 15.3381 15.5985 0 0 0
266 15 3 0.046089 2.76384 14.4126 17.6264 0 0 0
267 15 3 0.046089 3.26102 16.031 18.1093 0 0 0
268 15 3 0.033922 4.02264 14.7614 15.467 0 0 0
269 15 3 0.033922 4.64184 16.2513 16.2749 0 0 0
270 15 3 0.033922 5.13667 14.6887 16.9111 0 0 0
271 16 1 -0.091211 7.86176 18.9747 3.42651 0 0 0
272 16 1 -0.050311 6.36806 19.4947 3.57317 0 0 0
273 16 2 -0.174311 5.40277 18.3955 3.22693 0 0 0
274 16 2 -0.174311 4.18424 18.1611 3.83489 0 0 0
275 16 1 -0.050311 3.50387 19.0616 4.78514 0 0 0
276 16 1 -0.091211 2.33567 19.8147 4.15431 0 0 0
277 16 3 0.033922 8.0215 18.0454 3.98093 0 0 0
278 16 3 0.033922 8.40681 19.8025 3.88947 0 0 0
279 16 3 0.033922 8.13265 18.9529 2.36686 0 0 0
280 16 3 0.046089 6.15729 19.8814 4.57454 0 0 0
281 16 3 0.046089 6.26793 20.3285 2.87222 0 0 0
282 16 4 0.121889 5.66857 17.6269 2.50821 0 0 0
283 16 4 0.121889 3.6766 17.2413 3.5626 0 0 0
284 16 3 0.046089 4.23699 19.7498 5.21588 0 0 0
285 16 3 0.046089 3.19132 18.4492 5.63595 0 0 0
286 16 3 0.033922 1.72139 20.3461 4.88701 0 0 0
287 16 3 0.033922 2.70557 20.5964 3.48445 0 0 0
288 16 3 0.033922 1.70962 19.1964 3.50436 0 0 0
289 17 1 -0.091211 7.48487 14.8321 7.61323 0 0 0
290 17 1 -0.050311 6.11872 15.5909 7.74779 0 0 0
291 17 2 -0.174311 6.22036 17.0388 7.44066 0 0 0
292 17 2 -0.174311 5.45067 18.005 8.0729 0 0 0
293 17 1 -0.050311 4.46733 17.9258 9.24902 0 0 0
294 17 1 -0.091211 3.38094 18.9575 9.08293 0 0 0
295 17 3 0.033922 8.04609 15.1185 6.71897 0 0 0
296 17 3 0.033922 7.30791 13.7527 7.6136 0 0 0
297 17 3 0.033922 8.12135 15.2046 8.42119 0 0 0
298 17 3 0.046089 5.41483 15.1427 7.0405 0 0 0
299 17 3 0.046089 5.60047 15.3369 8.67707 0 0 0
300 17 4 0.121889 6.89259 17.4481 6.69327 0 0 0
301 17 4 0.121889 5.56108 19.0076 7.67214 0 0 0
302 17 3 0.046089 5.11981 18.0921 10.1112 0 0 0
303 17 3 0.046089 4.04832 16.9339 9.44167 0 0 0
304 17 3 0.033922 2.78795 19.1955 9.97086 0 0 0
305 17 3 0.033922 3.77639 19.9029 8.7002 0 0 0
306 17 3 0.033922 2.6735 18.5818 8.33796 0 0 0
307 18 1 -0.091211 0.731079 3.68284 2.27032 0 1 1
308 18 1 -0.050311 0.591572 2.26818 1.56898 0 1 1
309 18 2 -0.174311 1.96633 1.6215 1.31257 0 1 1
310 18 2 -0.174311 2.15663 0.402038 0.695261 0 1 1
311 18 1 -0.050311 0.994273 -0.475389 0.392129 0 1 1
312 18 1 -0.091211 1.39602 21.048 -0.110367 0 0 1
313 18 3 0.033922 0.92212 4.45023 1.5145 0 1 1
314 18 3 0.033922 1.56208 3.62571 2.9794 0 1 1
315 18 3 0.033922 -0.111437 3.94207 2.91808 0 1 1
316 18 3 0.046089 -0.0356984 1.60047 2.16673 0 1 1
317 18 3 0.046089 0.12651 2.44241 0.594275 0 1 1
318 18 4 0.121889 2.9021 2.15044 1.46265 0 1 1
319 18 4 0.121889 3.19213 0.128329 0.519769 0 1 1
320 18 3 0.046089 0.450374 0.0377014 -0.406345 0 1 1
321 18 3 0.046089 0.414967 22.3533 1.31602 0 0 1
322 18 3 0.033922 0.544526 20.3633 -0.0581707 0 0 1
323 18 3 0.033922 1.78139 21.1766 -1.12607 0 0 1
324 18 3 0.033922 2.12346 20.6106 0.579668 0 0 1
325 19 1 -0.091211 13.6311 21.2141 0.579062 0 -1 0
326 19 1 -0.050311 14.7984 21.3969 1.54499 0 -1 0
327 19 2 -0.174311 14.4926 -0.301606 2.32304 0 0 0
328 19 2 -0.174311 15.122 0.932013 2.39143 0 0 0
329 19 1 -0.050311 16.2619 1.22522 1.40129 0 0 0
330 19 1 -0.091211 17.6353 1.0689 2.06851 0 0 0
331 19 3 0.033922 12.7071 20.8374 1.02726 0 -1 0
332 19 3 0.033922 13.9382 20.4535 -0.144704 0 -1 0
333 19 3 0.033922 13.4949 22.2035 0.132981 0 -1 0
334 19 3 0.046089 14.9597 20.6288 2.30697 0 -1 0
335 19 3 0.046089 15.6906 21.4309 0.912917 0 -1 0
336 19 4 0.121889 13.668 -0.372205 3.02514 0 0 0
337 19 4 0.121889 14.7799 1.76627 2.99552 0 0 0
338 19 3 0.046089 16.1936 2.28342 1.13271 0 0 0
339 19 3 0.046089 16.2041 0.638491 0.479834 0 0 0
340 19 3 0.033922 17.586 0.181028 2.70559 0 0 0
341 19 3 0.033922 18.4123 0.867825 1.32525 0 0 0
342 19 3 0.033922 17.9512 1.90692 2.69664 0 0 0
343 20 1 -0.091211 14.3483 3.99166 6.09082 0 0 0
344 20 1 -0.050311 13.5416 3.88179 7.36174 0 0 0
345 20 2 -0.174311 12.184 3.30504 7.08932 0 0 0
346 20 2 -0.174311 10.9637 3.88677 7.45659 0 0 0
347 20 1 -0.050311 10.8302 5.22143 8.20336 0 0 0
348 20 1 -0.091211 10.4715 6.3696 7.30881 0 0 0
349 20 3 0.033922 14.2294 3.0514 5.54459 0 0 0
350 20 3 0.033922 15.4203 4.10386 6.27735 0 0 0
351 20 3 0.033922 14.0071 4.82123 5.46472 0 0 0
352 20 3 0.046089 14.1093 3.24041 8.04218 0 0 0
353 20 3 0.046089 13.4567 4.85804 7.84787 0 0 0
354 20 4 0.121889 12.0633 2.33275 6.62234 0 0 0
355 20 4 0.121889 10.0127 3.47933 7.12835 0 0 0
356 20 3 0.046089 11.7589 5.4679 8.72618 0 0 0
357 20 3 0.046089 10.174 5.13764 9.07462 0 0 0
358 20 3 0.033922 10.3577 7.25701 7.93824 0 0 0
359 20 3 0.033922 11.2275 6.49779 6.52865 0 0 0
360 20 3 0.033922 9.51764 6.20258 6.79997 0 0 0
361 21 1 -0.091211 5.12767 0.83767 20.8903 0 0 0
362 21 1 -0.050311 5.25942 -0.333377 19.9815 0 0 0
363 21 2 -0.174311 5.64717 -0.0775094 18.5372 0 0 0
364 21 2 -0.174311 4.91096 -0.35159 17.4055 0 0 0
365 21 1 -0.050311 3.48996 22.0017 17.4949 0 -1 0
366 21 1 -0.091211 3.10821 21.4463 16.1397 0 -1 0
367 21 3 0.033922 5.93376 1.51201 20.5869 0 0 0
368 21 3 0.033922 5.2238 0.535222 21.9372 0 0 0
369 21 3 0.033922 4.16691 1.31296 20.6721 0 0 0
370 21 3 0.046089 5.99763 21.8867 20.3916 0 -1 0
371 21 3 0.046089 4.31725 22.0279 20.0255 0 -1 0
372 21 4 0.121889 6.68729 0.220258 18.4509 0 0 0
373 21 4 0.121889 5.25099 -0.151914 16.3943 0 0 0
374 21 3 0.046089 2.7083 -0.216267 17.8098 0 0 0
375 21 3 0.046089 3.3853 21.1749 18.2035 0 -1 0
376 21 3 0.033922 2.01806 21.367 16.0967 0 -1 0
377 21 3 0.033922 3.47358 22.0553 15.3076 0 -1 0
378 21 3 0.033922 3.58548 20.4621 16.1277 0 -1 0
379 22 1 -0.091211 10.3571 1.95484 -1.25636 0 0 1
380 22 1 -0.050311 10.1883 1.3397 0.144446 0 0 1
381 22 2 -0.174311 8.95102 0.48867 0.177243 0 0 1
382 22 2 -0.174311 8.5911 -0.148323 1.33133 0 0 1
383 22 1 -0.050311 9.48907 -0.206683 2.54872 0 0 1
384 22 1 -0.091211 8.7099 0.385845 3.65406 0 0 1
385 22 3 0.033922 10.8184 1.20873 22.025 0 0 0
386 22 3 0.033922 10.9937 2.8444 -1.26228 0 0 1
387 22 3 0.033922 9.37214 2.16551 22.252 0 0 0
388 22 3 0.046089 11.1281 0.836055 0.389049 0 0 1
389 22 3 0.046089 10.0702 2.22431 0.776995 0 0 1
390 22 4 0.121889 8.32155 0.304304 -0.687528 0 0 1
391 22 4 0.121889 7.59848 22.3342 1.40423 0 -1 1
392 22 3 0.046089 10.4126 0.358762 2.39402 0 0 1
393 22 3 0.046089 9.77453 21.6779 2.77822 0 -1 1
394 22 3 0.033922 9.17368 0.240327 4.63407 0 0 1
395 22 3 0.033922 8.69225 1.45186 3.40934 0 0 1
396 22 3 0.033922 7.65338 0.11179 3.72633 0 0 1
397 23 1 -0.091211 9.14269 4.44654 4.05001 0 0 0
398 23 1 -0.050311 10.4555 4.93824 3.39875 0 0 0
399 23 2 -0.174311 10.03 5.81494 2.22404 0 0 0
400 23 2 -0.174311 10.8791 6.46867 1.38586 0 0 0
401 23 1 -0.050311 12.3306 6.59139 1.68105 0 0 0
402 23 1 -0.091211 13.1782 7.05944 0.448301 0 0 0
403 23 3 0.033922 8.51572 5.23145 4.48293 0 0 0
404 23 3 0.033922 9.30115 3.72685 4.85846 0 0 0
405 23 3 0.033922 8.63535 3.94392 3.22138 0 0 0
406 23 3 0.046089 11.145 5.31975 4.15747 0 0 0
407 23 3 0.046089 10.9671 4.09528 2.9252 0 0 0
408 23 4 0.121889 9.03295 5.77089 1.79746 0 0 0
409 23 4 0.121889 10.5972 6.9112 0.435727 0 0 0
410 23 3 0.046089 12.699 5.59909 1.95711 0 0 0
411 23 3 0.046089 12.4807 7.33869 2.46568 0 0 0
412 23 3 0.033922 14.2392 7.00015 0.707799 0 0 0
413 23 3 0.033922 12.9213 6.35338 -0.346745 0 0 0
414 23 3 0.033922 12.8767 8.04736 0.088165 0 0 0
415 24 1 -0.091211 7.48335 15.6714 1.19204 0 0 0
416 24 1 -0.050311 6.5573 14.6074 1.79439 0 0 0
417 24 2 -0.174311 7.4086 13.2835 1.85314 0 0 0
418 24 2 -0.174311 7.22382 12.2307 2.68427 0 0 0
419 24 1 -0.050311 5.99899 12.14 3.64069 0 0 0
420 24 1 -0.091211 6.42297 11.5669 4.95223 0 0 0
421 24 3 0.033922 8.19638 15.9848 1.9602 0 0 0
422 24 3 0.033922 6.95147 16.5978 0.956419 0 0 0
423 24 3 0.033922 8.06358 15.3796 0.311791 0 0 0
424 24 3 0.046089 6.16601 14.8973 2.77396 0 0 0
425 24 3 0.046089 5.63383 14.4827 1.22145 0 0 0
426 24 4 0.121889 8.24472 13.1513 1.17384 0 0 0
427 24 4 0.121889 7.95683 11.4318 2.63386 0 0 0
428 24 3 0.046089 5.20715 11.6653 3.05396 0 0 0
429 24 3 0.046089 5.68338 13.1687 3.8374 0 0 0
430 24 3 0.033922 6.77721 10.5324 4.98175 0 0 0
431 24 3 0.033922 7.16741 12.2183 5.41916 0 0 0
432 24 3 0.033922 5.57397 11.6799 5.63273 0 0 0
433 25 1 -0.091211 7.00556 7.63886 7.92129 0 0 0
434 25 1 -0.050311 6.46693 8.89183 8.59944 0 0 0
435 25 2 -0.174311 5.71641 8.39419 9.90278 0 0 0
436 25 2 -0.174311 4.33586 8.00733 9.92064 0 0 0
437 25 1 -0.050311 3.41974 8.05498 8.69292 0 0 0
438 25 1 -0.091211 2.39396 6.99887 8.79356 0 0 0
439 25 3 0.033922 7.70135 7.06244 8.53791 0 0 0
440 25 3 0.033922 7.49585 7.78708 6.95468 0 0 0
441 25 3 0.033922 6.17742 6.94875 7.73554 0 0 0
442 25 3 0.046089 7.31115 9.49571 8.94472 0 0 0
443 25 3 0.046089 5.79636 9.50753 7.99292 0 0 0
444 25 4 0.121889 6.27062 8.31203 10.8324 0 0 0
445 25 4 0.121889 4.00775 7.72835 10.9169 0 0 0
446 25 3 0.046089 3.94036 7.84606 7.75378 0 0 0
447 25 3 0.046089 3.0345 9.07703 8.75259 0 0 0
448 25 3 0.033922 1.7247 7.21877 9.63046 0 0 0
449 25 3 0.033922 1.75541 6.97963 7.90556 0 0 0
450 25 3 0.033922 2.80613 5.98642 8.7532 0 0 0
451 26 1 -0.091211 4.93139 3.04461 17.0482 0 0 0
452 26 1 -0.050311 5.28152 4.42878 16.4727 0 0 0
453 26 2 -0.174311 4.39332 4.89149 15.3417 0 0 0
454 26 2 -0.174311 4.6612 5.96765 14.5537 0 0 0
455 26 1 -0.050311 5.81458 6.86693 14.7975 0 0 0
456 26 1 -0.091211 6.90121 6.44415 13.8041 0 0 0
457 26 3 0.033922 3.96657 2.97483 17.559 0 0 0
458 26 3 0.033922 5.68833 2.89533 17.8237 0 0 0
459 26 3 0.033922 5.07308 2.24974 16.3101 0 0 0
460 26 3 0.046089 5.12711 5.23799 17.1924 0 0 0
461 26 3 0.046089 6.32506 4.41119 16.1451 0 0 0
462 26 4 0.121889 3.45217 4.37301 15.1887 0 0 0
463 26 4 0.121889 3.90293 6.16066 13.8015 0 0 0
464 26 3 0.046089 6.18978 6.81571 15.8238 0 0 0
465 26 3 0.046089 5.43701 7.85364 14.5139 0 0 0
466 26 3 0.033922 7.82393 7.02608 13.8848 0 0 0
467 26 3 0.033922 7.27619 5.41847 13.8668 0 0 0
468 26 3 0.033922 6.63568 6.66942 12.7671 0 0 0
469 27 1 -0.091211 15.1324 4.72285 20.8893 0 0 0
470 27 1 -0.050311 14.0592 5.0833 19.8542 0 0 0
471 27 2 -0.174311 12.8483 5.88525 20.2349 0 0 0
472 27 2 -0.174311 12.6959 7.24764 20.0774 0 0 0
473 27 1 -0.050311 13.7614 8.18386 19.6602 0 0 0
474 27 1 -0.091211 13.5873 8.64938 18.184 0 0 0
475 27 3 0.033922 15.8546 3.95544 20.5961 0 0 0
476 27 3 0.033922 14.5917 4.28366 21.7328 0 0 0
477 27 3 0.033922 15.701 5.56974 21.2844 0 0 0
478 27 3 0.046089 14.5006 5.65262 19.0309 0 0 0
479 27 3 0.046089 13.746 4.1102 19.4648 0 0 0
480 27 4 0.121889 12.0191 5.33407 20.6668 0 0 0
481 27 4 0.121889 11.7931 7.69905 20.4763 0 0 0
482 27 3 0.046089 14.782 7.79468 19.7196 0 0 0
483 27 3 0.046089 13.7388 9.00402 20.3837 0 0 0
484 27 3 0.033922 13.8525 9.69245 17.9884 0 0 0
485 27 3 0.033922 14.0698 7.9976 17.4499 0 0 0
486 27 3 0.033922 12.5387 8.68909 17.875 0 0 0
487 28 1 -0.091211 5.90332 9.63322 0.311785 0 0 0
488 28 1 -0.050311 4.70431 9.2675 -0.506207 0 0 0
489 28 2 -0.174311 3.99525 8.01603 0.0916789 0 0 0
490 28 2 -0.174311 4.12444 6.70905 -0.435222 0 0 0
491 28 1 -0.050311 4.90488 6.50698 22.2613 0 0 -1
492 28 1 -0.091211 5.40362 5.09053 22.1501 0 0 -1
493 28 3 0.033922 6.27784 10.5995 -0.0382643 0 0 0
494 28 3 0.033922 6.75936 8.9748 0.137788 0 0 0
495 28 3 0.033922 5.69266 9.67942 1.38426 0 0 0
496 28 3 0.046089 3.99245 10.098 -0.518238 0 0 0
497 28 3 0.046089 5.04465 9.03419 22.4157 0 0 -1
498 28 4 0.121889 3.41968 8.13595 1.00404 0 0 0
499 28 4 0.121889 3.63127 5.85763 0.0228684 0 0 0
500 28 3 0.046089 5.7766 7.16771 22.2503 0 0 -1
501 28 3 0.046089 4.36113 6.81106 21.3621 0 0 -1
502 28 3 0.033922 6.14475 5.09634 21.3456 0 0 -1
503 28 3 0.033922 5.89836 4.69012 -0.895152 0 0 0
504 28 3 0.033922 4.63261 4.41934 21.7607 0 0 -1
505 29 1 -0.091211 14.2731 10.4222 12.652 0 0 0
506 29 1 -0.050311 12.7406 10.2124 12.7538 0 0 0
507 29 2 -0.174311 12.2532 10.5182 14.1011 0 0 0
508 29 2 -0.174311 10.9102 10.5292 14.5322 0 0 0
509 29 1 -0.050311 9.85538 10.2528 13.5113 0 0 0
510 29 1 -0.091211 8.51189 10.6036 14.0462 0 0 0
511 29 3 0.033922 14.7558 9.68762 13.3032 0 0 0
512 29 3 0.033922 14.4681 11.4647 12.92 0 0 0
513 29 3 0.033922 14.5633 10.2086 11.6191 0 0 0
514 29 3 0.046089 12.2109 10.8704 12.0587 0 0 0
515 29 3 0.046089 12.4949 9.15911 12.5898 0 0 0
516 29 4 0.121889 13.0298 10.7816 14.8121 0 0 0
517 29 4 0.121889 10.5374 10.6782 15.5406 0 0 0
518 29 3 0.046089 9.85263 9.19956 13.2158 0 0 0
519 29 3 0.046089 10.057 10.8328 12.606 0 0 0
520 29 3 0.033922 8.32518 10.1131 15.006 0 0 0
521 29 3 0.033922 8.37637 11.6833 14.1577 0 0 0
522 29 3 0.033922 7.76792 10.2796 13.3125 0 0 0
523 30 1 -0.091211 10.5081 10.2752 22.2689 0 0 0
524 30 1 -0.050311 9.82448 10.9661 21.1178 0 0 0
525 30 2 -0.174311 10.7159 10.6159 19.8744 0 0 0
526 30 2 -0.174311 10.3314 11.0825 18.626 0 0 0
527 30 1 -0.050311 9.12711 11.908 18.1804 0 0 0
528 30 1 -0.091211 9.57461 13.3225 17.8166 0 0 0
529 30 3 0.033922 10.5689 9.21438 22.0089 0 0 0
530 30 3 0.033922 9.92375 10.4389 -0.755924 0 0 1
531 30 3 0.033922 11.508 10.6932 22.4172 0 0 0
532 30 3 0.046089 8.82966 10.5302 20.9876 0 0 0
533 30 3 0.046089 9.83537 12.0569 21.1989 0 0 0
534 30 4 0.121889 11.6925 10.1924 20.0863 0 0 0
535 30 4 0.121889 11.0121 11.0108 17.7837 0 0 0
536 30 3 0.046089 8.34273 11.9646 18.9408 0 0 0
537 30 3 0.046089 8.67951 11.437 17.3004 0 0 0
538 30 3 0.033922 9.86791 13.2848 16.7634 0 0 0
539 30 3 0.033922 8.69773 13.9651 17.9381 0 0 0
540 30 3 0.033922 10.4583 13.6869 18.3485 0 0 0
541 31 1 -0.091211 10.1321 18.6509 18.9891 0 0 0
542 31 1 -0.050311 11.0392 19.5231 19.9331 0 0 0
543 31 2 -0.174311 10.3488 20.3483 21.0116 0 0 0
544 31 2 -0.174311 10.096 19.8475 22.2437 0 0 0
545 31 1 -0.050311 10.1008 18.3761 22.5703 0 0 0
546 31 1 -0.091211 10.7754 18.0988 -0.09139 0 0 1
547 31 3 0.033922 9.31564 19.1668 18.4754 0 0 0
548 31 3 0.033922 9.55211 17.8566 19.468 0 0 0
549 31 3 0.033922 10.7964 18.0222 18.3891 0 0 0
550 31 3 0.046089 11.7485 18.9277 20.5154 0 0 0
551 31 3 0.046089 11.5995 20.1654 19.2473 0 0 0
552 31 4 0.121889 10.1671 21.3769 20.717 0 0 0
553 31 4 0.121889 9.66958 20.5753 -1.00838 0 0 1
554 31 3 0.046089 10.617 17.8045 21.7936 0 0 0
555 31 3 0.046089 9.05405 18.0594 -1.3389 0 0 1
556 31 3 0.033922 11.8502 18.1864 -0.275369 0 0 1
557 31 3 0.033922 10.4088 18.6841 0.75694 0 0 1
558 31 3 0.033922 10.7119 17.0411 0.180301 0 0 1
559 32 1 -0.091211 13.4736 17.1287 1.65704 0 0 0
560 32 1 -0.050311 14.231 16.3035 2.68084 0 0 0
561 32 2 -0.174311 14.7022 17.2442 3.76475 0 0 0
562 32 2 -0.174311 15.9239 17.9412 3.73669 0 0 0
563 32 1 -0.050311 17.0448 17.7839 2.65195 0 0 0
564 32 1 -0.091211 18.3164 18.4204 3.13781 0 0 0
565 32 3 0.033922 12.6333 17.6381 2.13777 0 0 0
566 32 3 0.033922 13.1006 16.5029 0.841 0 0 0
567 32 3 0.033922 14.102 17.8823 1.17367 0 0 0
568 32 3 0.046089 13.574 15.5178 3.06498 0 0 0
569 32 3 0.046089 15.0955 15.8125 2.22467 0 0 0
570 32 4 0.121889 13.9958 17.4673 4.55805 0 0 0
571 32 4 0.121889 16.039 18.6529 4.54797 0 0 0
572 32 3 0.046089 16.7709 18.2761 1.7142 0 0 0
573 32 3 0.046089 17.2146 16.7122 2.51289 0 0 0
574 32 3 0.033922 19.1013 18.2713 2.39054 0 0 0
575 32 3 0.033922 18.2796 19.4924 3.35242 0 0 0
576 32 3 0.033922 18.5545 17.9185 4.08021 0 0 0
577 33 1 -0.091211 10.3701 21.9727 6.97584 0 0 0
578 33 1 -0.050311 8.97908 21.2979 7.06966 0 0 0
579 33 2 -0.174311 8.65067 20.8583 8.43352 0 0 0
580 33 2 -0.174311 7.47506 21.1447 9.04277 0 0 0
581 33 1 -0.050311 6.38986 22.0993 8.58363 0 0 0
582 33 1 -0.091211 5.45405 -0.301087 9.55088 0 1 0
583 33 3 0.033922 11.1948 21.3493 7.33319 0 0 0
584 33 3 0.033922 10.4723 -0.0167809 7.54936 0 1 0
585 33 3 0.033922 10.626 -0.710595 5.9379 0 1 0
586 33 3 0.046089 8.21141 22.022 6.78176 0 0 0
587 33 3 0.046089 9.05084 20.3905 6.46282 0 0 0
588 33 4 0.121889 9.29104 20.0888 8.85279 0 0 0
589 33 4 0.121889 7.18464 20.6038 9.93785 0 0 0
590 33 3 0.046089 5.78574 21.6545 7.78749 0 0 0
591 33 3 0.046089 6.86733 0.0636699 8.14239 0 1 0
592 33 3 0.033922 6.01041 0.276621 10.2948 0 1 0
593 33 3 0.033922 4.72758 0.361932 9.07209 0 1 0
594 33 3 0.033922 4.89313 21.78 9.98212 0 0 0
595 34 1 -0.091211 12.2859 14.928 21.7947 0 0 0
596 34 1 -0.050311 13.0011 14.1457 20.6959 0 0 0
597 34 2 -0.174311 12.7938 14.8164 19.3669 0 0 0
598 34 2 -0.174311 13.1842 14.2254 18.1637 0 0 0
599 34 1 -0.050311 13.9464 12.916 17.9831 0 0 0
600 34 1 -0.091211 15.4002 13.1015 17.8806 0 0 0
601 34 3 0.033922 12.542 15.9856 21.6826 0 0 0
602 34 3 0.033922 12.4749 14.6492 -1.09949 0 0 1
603 34 3 0.033922 11.2203 14.8465 21.5615 0 0 0
604 34 3 0.046089 14.0893 14.139 20.8073 0 0 0
605 34 3 0.046089 12.6299 13.1172 20.7261 0 0 0
606 34 4 0.121889 12.327 15.792 19.2768 0 0 0
607 34 4 0.121889 12.9908 14.7395 17.2276 0 0 0
608 34 3 0.046089 13.6512 12.4986 17.0159 0 0 0
609 34 3 0.046089 13.6888 12.2635 18.8225 0 0 0
610 34 3 0.033922 15.7795 13.4843 18.8326 0 0 0
611 34 3 0.033922 15.8859 12.1432 17.6746 0 0 0
612 34 3 0.033922 15.7148 13.7496 17.0574 0 0 0
613 35 1 -0.091211 6.09129 13.0599 20.4113 0 0 0
614 35 1 -0.050311 4.67136 12.8169 20.9122 0 0 0
615 35 2 -0.174311 3.83553 14.0975 20.7748 0 0 0
616 35 2 -0.174311 2.49241 14.1188 20.2714 0 0 0