ITEM: TIMESTEP
100
ITEM: NUMBER OF ATOMS
1800
ITEM: BOX BOUNDS pp pp pp
-3.0363957744939221e+00 4.1844411274493702e+01
-7.7354192417513090e-01 2.2382197424175388e+01
-3.8833411068235435e-01 2.1642067610682403e+01
ITEM: ATOMS id mol type q x y z ix iy iz
1 1 1 -0.091211 -1.13084 2.13506 1.90962 0 0 0
2 1 1 -0.050311 0.195645 2.20187 1.15542 0 0 0
3 1 2 -0.174311 0.758334 0.813415 0.997432 0 0 0
4 1 2 -0.174311 1.93075 0.347649 1.47859 0 0 0
5 1 1 -0.050311 2.88665 1.05542 2.43638 0 0 0
6 1 1 -0.091211 3.8214 2.01956 1.72431 0 0 0
7 1 3 0.033922 -1.89223 1.59724 1.33688 0 0 0
8 1 3 0.033922 -1.50523 3.14795 2.08488 0 0 0
9 1 3 0.033922 -1.00247 1.63932 2.87639 0 0 0
10 1 3 0.046089 -0.0122373 2.58964 0.153763 0 0 0
11 1 3 0.046089 0.921238 2.84199 1.66605 0 0 0
12 1 4 0.121889 0.197341 0.0581901 0.455934 0 0 0
13 1 4 0.121889 2.11951 -0.68744 1.21187 0 0 0
14 1 3 0.046089 3.49023 0.281186 2.91926 0 0 0
15 1 3 0.046089 2.30209 1.6344 3.1575 0 0 0
16 1 3 0.033922 4.08654 2.8181 2.42351 0 0 0
17 1 3 0.033922 4.71078 1.42433 1.49684 0 0 0
18 1 3 0.033922 3.45545 2.45797 0.791148 0 0 0
19 2 1 -0.091211 -1.28069 1.94502 11.0691 0 0 0
20 2 1 -0.050311 -0.22645 2.62768 10.2116 0 0 0
21 2 2 -0.174311 0.627519 1.58574 9.59426 0 0 0
22 2 2 -0.174311 1.86311 1.25643 10.1004 0 0 0
23 2 1 -0.050311 2.62703 1.63172 11.3854 0 0 0
24 2 1 -0.091211 4.08389 2.11579 11.0784 0 0 0
25 2 3 0.033922 -1.9392 1.36747 10.4135 0 0 0
26 2 3 0.033922 -1.8436 2.70574 11.618 0 0 0
27 2 3 0.033922 -0.854069 1.25089 11.7992 0 0 0
28 2 3 0.046089 -0.675555 3.18295 9.38279 0 0 0
29 2 3 0.046089 0.339169 3.36448 10.7896 0 0 0
30 2 4 0.121889 0.294801 1.09526 8.68486 0 0 0
31 2 4 0.121889 2.39946 0.583986 9.43829 0 0 0
32 2 3 0.046089 2.67668 0.74411 12.023 0 0 0
33 2 3 0.046089 2.08319 2.40551 11.9353 0 0 0
34 2 3 0.033922 4.60595 2.27068 12.0273 0 0 0
35 2 3 0.033922 4.62007 1.37046 10.4835 0 0 0
36 2 3 0.033922 4.08095 3.05556 10.5184 0 0 0
37 3 1 -0.091211 -1.53825 2.53571 14.6109 0 0 0
38 3 1 -0.050311 -0.173121 3.09114 14.295 0 0 0
39 3 2 -0.174311 0.790825 1.97547 14.2082 0 0 0
40 3 2 -0.174311 1.99752 1.73859 14.8817 0 0 0
41 3 1 -0.050311 2.59843 2.40882 16.0417 0 0 0
42 3 1 -0.091211 4.14182 2.53641 15.9281 0 0 0
43 3 3 0.033922 -1.80912 1.71969 13.9345 0 0 0
44 3 3 0.033922 -2.27864 3.33639 14.5231 0 0 0
45 3 3 0.033922 -1.52121 2.10995 15.6186 0 0 0
46 3 3 0.046089 -0.265109 3.63515 13.3503 0 0 0
47 3 3 0.046089 0.168506 3.81267 15.043 0 0 0
48 3 4 0.121889 0.575488 1.19901 13.4809 0 0 0
49 3 4 0.121889 2.53251 0.810321 14.7075 0 0 0
50 3 3 0.046089 2.36382 1.80258 16.9217 0 0 0
51 3 3 0.046089 2.18379 3.40114 16.2423 0 0 0
52 3 3 0.033922 4.50013 2.88093 16.9027 0 0 0
53 3 3 0.033922 4.58859 1.56482 15.6974 0 0 0
54 3 3 0.033922 4.46566 3.23845 15.1541 0 0 0
55 4 1 -0.091211 -1.15161 6.5239 2.14973 0 0 0
56 4 1 -0.050311 0.228067 7.14758 1.81532 0 0 0
57 4 2 -0.174311 1.20444 6.09275 1.21519 0 0 0
58 4 2 -0.174311 2.37284 5.55512 1.65151 0 0 0
59 4 1 -0.050311 3.10432 5.895 2.84056 0 0 0
60 4 1 -0.091211 4.3974 6.62394 2.542 0 0 0
61 4 3 0.033922 -1.74537 6.29799 1.25901 0 0 0
62 4 3 0.033922 -1.716 7.22335 2.77355 0 0 0
63 4 3 0.033922 -1.001 5.60768 2.72825 0 0 0
64 4 3 0.046089 0.0550024 7.86056 1.0038 0 0 0
65 4 3 0.046089 0.718068 7.61062 2.67696 0 0 0
66 4 4 0.121889 0.856287 5.57776 0.325323 0 0 0
67 4 4 0.121889 2.86887 4.82075 1.02467 0 0 0
68 4 3 0.046089 3.37379 4.9571 3.33509 0 0 0
69 4 3 0.046089 2.47205 6.52147 3.47674 0 0 0
70 4 3 0.033922 5.10326 6.24219 3.28565 0 0 0
71 4 3 0.033922 4.75241 6.36711 1.53953 0 0 0
72 4 3 0.033922 4.29164 7.70421 2.67844 0 0 0
73 5 1 -0.091211 -1.46075 5.74113 6.03836 0 0 0
74 5 1 -0.050311 -0.245431 6.6392 5.69324 0 0 0
75 5 2 -0.174311 0.913795 5.69072 5.61491 0 0 0
76 5 2 -0.174311 2.22042 5.95707 5.98817 0 0 0
77 5 1 -0.050311 2.65397 7.19586 6.73603 0 0 0
78 5 1 -0.091211 4.15003 7.11996 7.13482 0 0 0
79 5 3 0.033922 -1.90154 5.29664 5.14111 0 0 0
80 5 3 0.033922 -2.19283 6.3771 6.54489 0 0 0
81 5 3 0.033922 -1.21009 4.93444 6.73354 0 0 0
82 5 3 0.046089 -0.444583 7.08233 4.713 0 0 0
83 5 3 0.046089 -0.0869973 7.44063 6.42087 0 0 0
84 5 4 0.121889 0.73462 4.83959 4.96553 0 0 0
85 5 4 0.121889 2.97677 5.19717 5.81833 0 0 0
86 5 3 0.046089 2.11148 7.26055 7.68392 0 0 0
87 5 3 0.046089 2.43173 8.08389 6.13699 0 0 0
88 5 3 0.033922 4.40589 7.97033 7.77378 0 0 0
89 5 3 0.033922 4.37683 6.18494 7.65551 0 0 0
90 5 3 0.033922 4.80264 7.17964 6.25873 0 0 0
91 6 1 -0.091211 -1.44897 6.67909 19.0822 0 0 0
92 6 1 -0.050311 -0.0569698 6.88557 18.5707 0 0 0
93 6 2 -0.174311 0.737654 5.62029 18.7089 0 0 0
94 6 2 -0.174311 1.91144 5.38004 19.3745 0 0 0
95 6 1 -0.050311 2.72376 6.24099 20.2604 0 0 0
96 6 1 -0.091211 4.11058 6.53795 19.5866 0 0 0
97 6 3 0.033922 -1.88089 5.71948 18.7832 0 0 0
98 6 3 0.033922 -2.12755 7.45519 18.716 0 0 0
99 6 3 0.033922 -1.44857 6.72047 20.1755 0 0 0
100 6 3 0.046089 -0.133774 7.13265 17.5077 0 0 0
101 6 3 0.046089 0.484247 7.72393 19.0192 0 0 0
102 6 4 0.121889 0.415781 4.84157 18.0246 0 0 0
103 6 4 0.121889 2.25331 4.36091 19.2239 0 0 0
104 6 3 0.046089 2.95973 5.6008 21.1156 0 0 0
105 6 3 0.046089 2.23807 7.16344 20.5922 0 0 0
106 6 3 0.033922 4.73223 7.03736 20.3357 0 0 0
107 6 3 0.033922 4.64717 5.64052 19.2648 0 0 0
108 6 3 0.033922 4.01508 7.21595 18.7334 0 0 0
109 7 1 -0.091211 -0.980742 10.9364 1.8414 0 0 0
110 7 1 -0.050311 0.174926 11.6538 1.24953 0 0 0
111 7 2 -0.174311 1.06922 10.531 0.865909 0 0 0
112 7 2 -0.174311 2.23831 10.0976 1.48299 0 0 0
113 7 1 -0.050311 2.73791 10.4515 2.85279 0 0 0
114 7 1 -0.091211 4.15585 10.9913 2.71869 0 0 0
115 7 3 0.033922 -1.4011 10.3328 1.03151 0 0 0
116 7 3 0.033922 -1.73086 11.6336 2.22639 0 0 0
117 7 3 0.033922 -0.641508 10.3009 2.66479 0 0 0
118 7 3 0.046089 -0.0971956 12.1889 0.334942 0 0 0
119 7 3 0.046089 0.539448 12.3343 2.02473 0 0 0
120 7 4 0.121889 0.870981 10.0125 -0.0669333 0 0 0
121 7 4 0.121889 2.78401 9.27679 1.0283 0 0 0
122 7 3 0.046089 2.76095 9.5442 3.46354 0 0 0
123 7 3 0.046089 2.03292 11.108 3.37142 0 0 0
124 7 3 0.033922 4.77472 10.5246 3.49078 0 0 0
125 7 3 0.033922 4.61674 10.768 1.75191 0 0 0
126 7 3 0.033922 4.18618 12.0715 2.88905 0 0 0
127 8 1 -0.091211 -1.98647 10.6614 10.8767 0 0 0
128 8 1 -0.050311 -0.678792 11.2166 10.3217 0 0 0
129 8 2 -0.174311 0.323417 10.1702 10.0075 0 0 0
130 8 2 -0.174311 1.61581 9.9614 10.3529 0 0 0
131 8 1 -0.050311 2.47976 10.7598 11.2685 0 0 0
132 8 1 -0.091211 3.80468 11.0169 10.5952 0 0 0
133 8 3 0.033922 -2.39309 9.86456 10.2469 0 0 0
134 8 3 0.033922 -2.74296 11.4486 10.9476 0 0 0
135 8 3 0.033922 -1.8582 10.244 11.8798 0 0 0
136 8 3 0.046089 -0.925009 11.7307 9.38788 0 0 0
137 8 3 0.046089 -0.269267 11.9476 11.0251 0 0 0
138 8 4 0.121889 0.0306162 9.39075 9.31109 0 0 0
139 8 4 0.121889 2.08609 9.15238 9.8028 0 0 0
140 8 3 0.046089 2.6401 10.2445 12.2201 0 0 0
141 8 3 0.046089 2.00408 11.7154 11.5082 0 0 0
142 8 3 0.033922 4.46481 11.5147 11.3116 0 0 0
143 8 3 0.033922 4.25597 10.0856 10.2403 0 0 0
144 8 3 0.033922 3.63583 11.7121 9.76756 0 0 0
145 9 1 -0.091211 -1.69945 10.6088 14.7921 0 0 0
146 9 1 -0.050311 -0.240779 11.0273 14.7 0 0 0
147 9 2 -0.174311 0.628698 9.84044 14.6745 0 0 0
148 9 2 -0.174311 1.99245 9.85836 14.9976 0 0 0
149 9 1 -0.050311 2.80975 11.0526 15.4656 0 0 0
150 9 1 -0.091211 4.317 10.68 15.4327 0 0 0
151 9 3 0.033922 -1.9873 9.8797 14.029 0 0 0
152 9 3 0.033922 -2.32776 11.4913 14.6392 0 0 0
153 9 3 0.033922 -1.99259 10.1549 15.7434 0 0 0
154 9 3 0.046089 -0.123661 11.5126 13.7265 0 0 0
155 9 3 0.046089 0.0294266 11.77 15.4565 0 0 0
156 9 4 0.121889 0.190777 8.91192 14.3219 0 0 0
157 9 4 0.121889 2.44616 8.87588 15.082 0 0 0
158 9 3 0.046089 2.58247 11.2445 16.5184 0 0 0
159 9 3 0.046089 2.5757 11.9768 14.9292 0 0 0
160 9 3 0.033922 4.86437 11.2683 16.1751 0 0 0
161 9 3 0.033922 4.50504 9.6257 15.6562 0 0 0
162 9 3 0.033922 4.78816 10.9008 14.4703 0 0 0
163 10 1 -0.091211 -1.20504 10.243 19.9054 0 0 0
164 10 1 -0.050311 -0.269919 11.2697 19.2745 0 0 0
165 10 2 -0.174311 0.739964 10.5022 18.5224 0 0 0
166 10 2 -0.174311 2.01407 10.2135 18.9038 0 0 0
167 10 1 -0.050311 2.76962 10.5407 20.206 0 0 0
168 10 1 -0.091211 4.21024 11.0353 20.0595 0 0 0
169 10 3 0.033922 -1.9629 9.9687 19.1655 0 0 0
170 10 3 0.033922 -1.70205 10.6661 20.7834 0 0 0
171 10 3 0.033922 -0.68664 9.34413 20.2522 0 0 0
172 10 3 0.046089 -0.915692 11.8708 18.6274 0 0 0
173 10 3 0.046089 0.183034 11.9012 20.0445 0 0 0
174 10 4 0.121889 0.529603 10.2865 17.4796 0 0 0
175 10 4 0.121889 2.5601 9.67822 18.1333 0 0 0
176 10 3 0.046089 2.73726 9.59548 20.7559 0 0 0
177 10 3 0.046089 2.18857 11.3364 20.6816 0 0 0
178 10 3 0.033922 4.86096 10.483 20.744 0 0 0
179 10 3 0.033922 4.59392 10.8688 19.0486 0 0 0
180 10 3 0.033922 4.30742 12.1028 20.2778 0 0 0
181 11 1 -0.091211 -1.40738 15.5262 0.950903 0 0 0
182 11 1 -0.050311 -0.0903596 16.1491 1.37643 0 0 0
183 11 2 -0.174311 1.03691 15.2197 1.03871 0 0 0
184 11 2 -0.174311 2.33699 15.1025 1.4805 0 0 0
185 11 1 -0.050311 2.95189 15.8132 2.61462 0 0 0
186 11 1 -0.091211 4.37633 16.3693 2.38239 0 0 0
187 11 3 0.033922 -1.42466 15.1915 -0.0905292 0 0 0
188 11 3 0.033922 -2.22246 16.2496 1.04744 0 0 0
189 11 3 0.033922 -1.72481 14.6525 1.52781 0 0 0
190 11 3 0.046089 0.0634799 17.0145 0.725089 0 0 0
191 11 3 0.046089 -0.0917565 16.4806 2.41901 0 0 0
192 11 4 0.121889 0.842973 14.4039 0.349513 0 0 0
193 11 4 0.121889 2.90307 14.3407 0.953712 0 0 0
194 11 3 0.046089 3.04122 15.0845 3.42575 0 0 0
195 11 3 0.046089 2.2903 16.6198 2.94403 0 0 0
196 11 3 0.033922 4.84707 16.6692 3.32336 0 0 0
197 11 3 0.033922 4.9293 15.5321 1.94641 0 0 0
198 11 3 0.033922 4.39807 17.2203 1.69522 0 0 0
199 12 1 -0.091211 -1.18417 16.2441 5.81774 0 0 0
200 12 1 -0.050311 0.253438 16.5528 5.49974 0 0 0
201 12 2 -0.174311 1.03133 15.2985 5.45813 0 0 0
202 12 2 -0.174311 2.27695 15.1272 5.98104 0 0 0
203 12 1 -0.050311 3.14464 16.0259 6.79798 0 0 0
204 12 1 -0.091211 4.6517 15.7754 6.61043 0 0 0
205 12 3 0.033922 -1.69961 15.7642 4.98046 0 0 0
206 12 3 0.033922 -1.74689 17.1633 6.00544 0 0 0
207 12 3 0.033922 -1.33727 15.6041 6.69172 0 0 0
208 12 3 0.046089 0.31557 17.0544 4.52947 0 0 0
209 12 3 0.046089 0.694865 17.2068 6.25758 0 0 0
210 12 4 0.121889 0.528262 14.4137 5.08093 0 0 0
211 12 4 0.121889 2.68126 14.1535 5.7229 0 0 0
212 12 3 0.046089 3.03355 15.7221 7.84309 0 0 0
213 12 3 0.046089 2.85358 17.0744 6.68511 0 0 0
214 12 3 0.033922 5.14706 15.9081 7.57684 0 0 0
215 12 3 0.033922 4.83777 14.7261 6.36285 0 0 0
216 12 3 0.033922 5.07881 16.4373 5.85126 0 0 0
217 13 1 -0.091211 -1.48527 15.5504 10.6455 0 0 0
218 13 1 -0.050311 -0.214256 16.2642 10.2455 0 0 0
219 13 2 -0.174311 0.766176 15.3079 9.71739 0 0 0
220 13 2 -0.174311 2.04687 15.0488 10.1179 0 0 0
221 13 1 -0.050311 2.81294 15.4654 11.3067 0 0 0
222 13 1 -0.091211 4.16655 16.1765 10.961 0 0 0
223 13 3 0.033922 -1.77903 14.9512 9.77855 0 0 0
224 13 3 0.033922 -2.26025 16.2938 10.8548 0 0 0
225 13 3 0.033922 -1.26012 14.8939 11.4911 0 0 0
226 13 3 0.046089 -0.383676 17.0136 9.46668 0 0 0
227 13 3 0.046089 0.209948 16.8267 11.0825 0 0 0
228 13 4 0.121889 0.459819 14.7959 8.81055 0 0 0
229 13 4 0.121889 2.53124 14.2969 9.50289 0 0 0
230 13 3 0.046089 3.12893 14.5898 11.8814 0 0 0
231 13 3 0.046089 2.20239 16.1776 11.8696 0 0 0
232 13 3 0.033922 4.62828 16.4867 11.9031 0 0 0
233 13 3 0.033922 4.82433 15.4414 10.4879 0 0 0
234 13 3 0.033922 3.98633 17.0441 10.3193 0 0 0
235 14 1 -0.091211 -1.30752 15.3884 14.9443 0 0 0
236 14 1 -0.050311 -0.120496 16.2359 14.4468 0 0 0
237 14 2 -0.174311 0.923098 15.2427 13.9965 0 0 0
238 14 2 -0.174311 2.16316 14.9479 14.5566 0 0 0
239 14 1 -0.050311 2.82884 15.3583 15.7967 0 0 0
240 14 1 -0.091211 4.25613 15.7676 15.585 0 0 0
241 14 3 0.033922 -1.74289 14.7735 14.151 0 0 0
242 14 3 0.033922 -2.03728 16.0875 15.3635 0 0 0
243 14 3 0.033922 -0.969558 14.7216 15.7431 0 0 0
244 14 3 0.046089 -0.389202 16.8496 13.5819 0 0 0
245 14 3 0.046089 0.3035 16.9716 15.1367 0 0 0
246 14 4 0.121889 0.673724 14.7262 13.075 0 0 0
247 14 4 0.121889 2.63274 14.2458 13.8748 0 0 0
248 14 3 0.046089 2.90385 14.4424 16.3903 0 0 0
249 14 3 0.046089 2.30011 16.0956 16.4081 0 0 0
250 14 3 0.033922 4.81435 15.7493 16.5258 0 0 0
251 14 3 0.033922 4.80305 15.1593 14.8585 0 0 0
252 14 3 0.033922 4.29621 16.8175 15.2802 0 0 0
253 15 1 -0.091211 -1.48765 16.0199 18.9242 0 0 0
254 15 1 -0.050311 -0.00316747 16.4212 18.648 0 0 0
255 15 2 -0.174311 0.868822 15.2094 18.4683 0 0 0
256 15 2 -0.174311 2.0552 14.7717 19.0013 0 0 0
257 15 1 -0.050311 2.78076 15.3363 20.1749 0 0 0
258 15 1 -0.091211 4.11142 16.0296 19.8085 0 0 0
259 15 3 0.033922 -1.78492 15.2657 18.1896 0 0 0
260 15 3 0.033922 -2.12898 16.8961 18.7903 0 0 0
261 15 3 0.033922 -1.60161 15.6044 19.9298 0 0 0
262 15 3 0.046089 0.023284 16.9836 17.71 0 0 0
263 15 3 0.046089 0.395147 17.1073 19.4013 0 0 0
264 15 4 0.121889 0.585769 14.6315 17.5941 0 0 0
265 15 4 0.121889 2.45579 13.8681 18.5525 0 0 0
266 15 3 0.046089 3.08191 14.4753 20.779 0 0 0
267 15 3 0.046089 2.17883 16.0816 20.7033 0 0 0
268 15 3 0.033922 4.7212 16.1671 20.7064 0 0 0
269 15 3 0.033922 4.6414 15.42 19.0706 0 0 0
270 15 3 0.033922 3.94704 17.0232 19.3812 0 0 0
271 16 1 -0.091211 -1.18059 20.428 10.8271 0 0 0
272 16 1 -0.050311 0.124232 21.008 10.2354 0 0 0
273 16 2 -0.174311 0.862797 19.91 9.51962 0 0 0
274 16 2 -0.174311 2.13771 19.3379 9.64481 0 0 0
275 16 1 -0.050311 3.12286 19.6815 10.6957 0 0 0
276 16 1 -0.091211 4.35212 20.3339 10.1827 0 0 0
277 16 3 0.033922 -1.91813 20.4024 10.0193 0 0 0
278 16 3 0.033922 -1.5791 21.0901 11.6015 0 0 0
279 16 3 0.033922 -1.0416 19.4198 11.2282 0 0 0
280 16 3 0.046089 -0.126141 21.7751 9.49663 0 0 0
281 16 3 0.046089 0.72412 21.5309 10.9861 0 0 0
282 16 4 0.121889 0.186405 19.5378 8.75652 0 0 0
283 16 4 0.121889 2.44851 18.5808 8.93176 0 0 0
284 16 3 0.046089 3.37299 18.7877 11.2749 0 0 0
285 16 3 0.046089 2.63075 20.3787 11.3803 0 0 0
286 16 3 0.033922 5.10582 20.2295 10.9689 0 0 0
287 16 3 0.033922 4.79039 19.9374 9.262 0 0 0
288 16 3 0.033922 4.23077 21.4076 10.0117 0 0 0
289 17 1 -0.091211 -1.5303 20.6593 14.5753 0 0 0
290 17 1 -0.050311 -0.0994979 21.1327 14.4233 0 0 0
291 17 2 -0.174311 0.816387 19.9715 13.9518 0 0 0
292 17 2 -0.174311 2.03151 19.4875 14.4193 0 0 0
293 17 1 -0.050311 2.71749 19.7821 15.6921 0 0 0
294 17 1 -0.091211 4.21635 19.8544 15.5648 0 0 0
295 17 3 0.033922 -1.99291 20.3375 13.6375 0 0 0
296 17 3 0.033922 -2.13314 21.4815 14.9722 0 0 0
297 17 3 0.033922 -1.57527 19.8424 15.3015 0 0 0
298 17 3 0.046089 -0.112087 21.87 13.6153 0 0 0
299 17 3 0.046089 0.260797 21.5282 15.3776 0 0 0
300 17 4 0.121889 0.51579 19.4775 13.0332 0 0 0
301 17 4 0.121889 2.47283 18.7262 13.7837 0 0 0
302 17 3 0.046089 2.5151 18.9002 16.3071 0 0 0
303 17 3 0.046089 2.30232 20.6609 16.1941 0 0 0
304 17 3 0.033922 4.62417 19.8229 16.5795 0 0 0
305 17 3 0.033922 4.59984 19.0367 14.9473 0 0 0
306 17 3 0.033922 4.43693 20.846 15.1589 0 0 0
307 18 1 -0.091211 -1.17736 20.9032 19.3922 0 0 0
308 18 1 -0.050311 -0.0177745 21.3621 18.5441 0 0 0
309 18 2 -0.174311 0.905715 20.2042 18.3814 0 0 0
310 18 2 -0.174311 2.07783 19.948 19.0069 0 0 0
311 18 1 -0.050311 2.58477 20.613 20.2942 0 0 0
312 18 1 -0.091211 3.89179 21.3951 20.0824 0 0 0
313 18 3 0.033922 -1.87183 20.3555 18.7482 0 0 0
314 18 3 0.033922 -1.71004 21.7765 19.7801 0 0 0
315 18 3 0.033922 -0.899735 20.2459 20.2216 0 0 0
316 18 3 0.046089 -0.416549 21.5429 17.5414 0 0 0
317 18 3 0.046089 0.477787 22.2711 18.8978 0 0 0
318 18 4 0.121889 0.682559 19.5227 17.5666 0 0 0
319 18 4 0.121889 2.56962 19.057 18.6296 0 0 0
320 18 3 0.046089 2.72034 19.8372 21.0536 0 0 0
321 18 3 0.046089 1.79764 21.26 20.6927 0 0 0
322 18 3 0.033922 4.43372 21.6268 21.0041 0 0 0
323 18 3 0.033922 4.57765 20.8193 19.4539 0 0 0
324 18 3 0.033922 3.75339 22.3531 19.5727 0 0 0
325 19 1 -0.091211 7.43543 2.13804 2.07716 0 0 0
326 19 1 -0.050311 8.78204 2.7496 1.6875 0 0 0
327 19 2 -0.174311 9.68355 1.66306 1.11046 0 0 0
328 19 2 -0.174311 11.0163 1.45502 1.29369 0 0 0
329 19 1 -0.050311 11.779 2.14114 2.36958 0 0 0
330 19 1 -0.091211 13.2709 1.8939 2.30605 0 0 0
331 19 3 0.033922 6.95219 1.88036 1.13005 0 0 0
332 19 3 0.033922 6.83965 2.8737 2.6256 0 0 0
333 19 3 0.033922 7.59219 1.25013 2.69672 0 0 0
334 19 3 0.046089 8.60749 3.51296 0.923525 0 0 0
335 19 3 0.046089 9.25113 3.19528 2.56969 0 0 0
336 19 4 0.121889 9.22159 1.07646 0.322559 0 0 0
337 19 4 0.121889 11.5071 0.768372 0.611064 0 0 0
338 19 3 0.046089 11.3693 1.76385 3.31127 0 0 0
339 19 3 0.046089 11.5406 3.20871 2.3861 0 0 0
340 19 3 0.033922 13.6074 1.9324 3.34633 0 0 0
341 19 3 0.033922 13.6291 0.960975 1.86089 0 0 0
342 19 3 0.033922 13.7189 2.77285 1.83322 0 0 0
343 20 1 -0.091211 7.26252 1.62078 6.69639 0 0 0
344 20 1 -0.050311 8.46047 2.41959 6.25862 0 0 0
345 20 2 -0.174311 9.41784 1.57307 5.51997 0 0 0
346 20 2 -0.174311 10.7112 1.23455 5.76397 0 0 0
347 20 1 -0.050311 11.5373 1.53719 6.96878 0 0 0
348 20 1 -0.091211 13.0335 1.59465 6.63333 0 0 0
349 20 3 0.033922 6.64785 1.37507 5.82531 0 0 0
350 20 3 0.033922 6.60282 2.17805 7.36811 0 0 0
351 20 3 0.033922 7.54982 0.690323 7.19493 0 0 0
352 20 3 0.046089 8.22625 3.2874 5.63502 0 0 0
353 20 3 0.046089 9.00894 2.82098 7.11596 0 0 0
354 20 4 0.121889 9.0548 1.07017 4.62914 0 0 0
355 20 4 0.121889 11.0983 0.547964 5.01764 0 0 0
356 20 3 0.046089 11.4706 0.660804 7.62018 0 0 0
357 20 3 0.046089 11.2793 2.41564 7.56759 0 0 0
358 20 3 0.033922 13.6296 1.21608 7.46897 0 0 0
359 20 3 0.033922 13.312 1.04129 5.73159 0 0 0
360 20 3 0.033922 13.2707 2.65664 6.52049 0 0 0
361 21 1 -0.091211 7.393 1.53985 10.3864 0 0 0
362 21 1 -0.050311 8.84069 2.00556 10.2565 0 0 0
363 21 2 -0.174311 9.67299 0.855131 9.88369 0 0 0
364 21 2 -0.174311 10.9875 0.562899 10.1725 0 0 0
365 21 1 -0.050311 11.8957 1.32213 11.1095 0 0 0
366 21 1 -0.091211 13.2375 1.67039 10.4926 0 0 0
367 21 3 0.033922 6.98662 1.22216 9.42156 0 0 0
368 21 3 0.033922 6.78674 2.39419 10.7017 0 0 0
369 21 3 0.033922 7.20859 0.731459 11.1001 0 0 0
370 21 3 0.046089 8.88449 2.70647 9.41765 0 0 0
371 21 3 0.046089 9.2307 2.55791 11.1166 0 0 0
372 21 4 0.121889 9.22446 0.0823194 9.26737 0 0 0
373 21 4 0.121889 11.3961 -0.323823 9.69808 0 0 0
374 21 3 0.046089 12.0797 0.6585 11.9596 0 0 0
375 21 3 0.046089 11.4777 2.25525 11.4987 0 0 0
376 21 3 0.033922 13.8657 1.94141 11.3463 0 0 0
377 21 3 0.033922 13.6456 0.814728 9.94656 0 0 0
378 21 3 0.033922 13.1835 2.5382 9.82863 0 0 0
379 22 1 -0.091211 7.8899 1.45444 15.0135 0 0 0
380 22 1 -0.050311 8.87459 2.27217 14.1687 0 0 0
381 22 2 -0.174311 10.0089 1.46975 13.7856 0 0 0
382 22 2 -0.174311 11.2074 1.24042 14.441 0 0 0
383 22 1 -0.050311 11.6429 1.74118 15.8091 0 0 0
384 22 1 -0.091211 12.9751 2.39684 15.6409 0 0 0
385 22 3 0.033922 7.44723 0.706464 14.3491 0 0 0
386 22 3 0.033922 7.11186 2.14987 15.3422 0 0 0
387 22 3 0.033922 8.36707 0.977749 15.8749 0 0 0
388 22 3 0.046089 8.40299 2.54649 13.2203 0 0 0
389 22 3 0.046089 9.19885 3.13947 14.7513 0 0 0
390 22 4 0.121889 9.80492 0.99081 12.8331 0 0 0
391 22 4 0.121889 11.841 0.502876 13.9584 0 0 0
392 22 3 0.046089 11.7718 0.874471 16.4641 0 0 0
393 22 3 0.046089 10.9166 2.4566 16.2063 0 0 0
394 22 3 0.033922 13.4787 2.53215 16.6027 0 0 0
395 22 3 0.033922 13.5569 1.73522 14.9924 0 0 0
396 22 3 0.033922 12.8557 3.37593 15.1677 0 0 0
397 23 1 -0.091211 7.91249 6.40154 1.36837 0 0 0
398 23 1 -0.050311 9.33408 7.10592 1.4168 0 0 0
399 23 2 -0.174311 10.3289 6.18966 0.919769 0 0 0
400 23 2 -0.174311 11.6239 5.97571 1.35122 0 0 0
401 23 1 -0.050311 12.3127 6.48758 2.5805 0 0 0
402 23 1 -0.091211 13.8303 6.76184 2.41861 0 0 0
403 23 3 0.033922 7.75444 5.8814 0.418979 0 0 0
404 23 3 0.033922 7.12826 7.15147 1.50832 0 0 0
405 23 3 0.033922 7.85602 5.65794 2.16882 0 0 0
406 23 3 0.046089 9.3541 7.9519 0.723455 0 0 0
407 23 3 0.046089 9.57821 7.49946 2.40798 0 0 0
408 23 4 0.121889 10.0226 5.59716 0.0633855 0 0 0
409 23 4 0.121889 12.2252 5.27526 0.780233 0 0 0
410 23 3 0.046089 12.3206 5.70016 3.33994 0 0 0
411 23 3 0.046089 11.7973 7.3486 3.01619 0 0 0
412 23 3 0.033922 14.2803 6.93068 3.40142 0 0 0
413 23 3 0.033922 14.3658 5.93924 1.93544 0 0 0
414 23 3 0.033922 13.9801 7.66887 1.8256 0 0 0
415 24 1 -0.091211 7.55043 6.61715 6.08548 0 0 0
416 24 1 -0.050311 8.83166 7.19442 5.50823 0 0 0
417 24 2 -0.174311 9.93602 6.16883 5.33767 0 0 0
418 24 2 -0.174311 11.2251 6.16827 5.82522 0 0 0
419 24 1 -0.050311 11.7222 7.17712 6.79651 0 0 0
420 24 1 -0.091211 13.1728 6.7834 7.3202 0 0 0
421 24 3 0.033922 7.02909 6.0659 5.29729 0 0 0
422 24 3 0.033922 6.94151 7.45042 6.44851 0 0 0
423 24 3 0.033922 7.77818 5.94162 6.91534 0 0 0
424 24 3 0.046089 8.62031 7.61868 4.52222 0 0 0
425 24 3 0.046089 9.15743 8.01446 6.15497 0 0 0
426 24 4 0.121889 9.71387 5.3105 4.71146 0 0 0
427 24 4 0.121889 11.8069 5.26636 5.66283 0 0 0
428 24 3 0.046089 11.0383 7.1968 7.65031 0 0 0
429 24 3 0.046089 11.6103 8.16311 6.33596 0 0 0
430 24 3 0.033922 13.5639 7.69877 7.77408 0 0 0
431 24 3 0.033922 13.1859 5.96226 8.04296 0 0 0
432 24 3 0.033922 13.8553 6.47494 6.52263 0 0 0
433 25 1 -0.091211 7.49257 6.78483 10.52 0 0 0
434 25 1 -0.050311 8.92418 7.25754 10.4079 0 0 0
435 25 2 -0.174311 9.78338 6.22388 9.8316 0 0 0
436 25 2 -0.174311 11.0584 5.75801 10.206 0 0 0
437 25 1 -0.050311 11.9159 6.18938 11.3804 0 0 0
438 25 1 -0.091211 13.1592 6.87189 10.8923 0 0 0
439 25 3 0.033922 7.0693 6.47 9.5615 0 0 0
440 25 3 0.033922 6.89954 7.65184 10.8258 0 0 0
441 25 3 0.033922 7.29458 5.98252 11.2369 0 0 0
442 25 3 0.046089 8.96153 8.05544 9.66034 0 0 0
443 25 3 0.046089 9.27242 7.70862 11.3418 0 0 0
444 25 4 0.121889 9.42217 5.93641 8.84916 0 0 0
445 25 4 0.121889 11.5307 5.04373 9.53891 0 0 0
446 25 3 0.046089 12.2108 5.31943 11.9746 0 0 0
447 25 3 0.046089 11.3305 6.85813 12.0184 0 0 0
448 25 3 0.033922 13.019 7.32656 9.90715 0 0 0
449 25 3 0.033922 13.3098 7.6673 11.6281 0 0 0
450 25 3 0.033922 14.0632 6.25576 10.876 0 0 0
451 26 1 -0.091211 7.46852 6.40031 14.7423 0 0 0
452 26 1 -0.050311 8.71114 7.13005 14.317 0 0 0
453 26 2 -0.174311 9.75526 6.15927 13.8906 0 0 0
454 26 2 -0.174311 10.9517 5.71317 14.4485 0 0 0
455 26 1 -0.050311 11.5062 6.00824 15.779 0 0 0
456 26 1 -0.091211 12.9769 6.47581 15.7178 0 0 0
457 26 3 0.033922 7.04882 5.93644 13.8448 0 0 0
458 26 3 0.033922 6.7217 7.10257 15.1245 0 0 0
459 26 3 0.033922 7.65885 5.64637 15.5119 0 0 0
460 26 3 0.046089 8.46839 7.79047 13.4793 0 0 0
461 26 3 0.046089 9.06876 7.66463 15.202 0 0 0
462 26 4 0.121889 9.49632 5.67227 12.9557 0 0 0
463 26 4 0.121889 11.5437 4.98844 13.8983 0 0 0
464 26 3 0.046089 11.5515 5.06171 16.3256 0 0 0
465 26 3 0.046089 10.8126 6.65543 16.3239 0 0 0
466 26 3 0.033922 13.4712 6.20884 16.6566 0 0 0
467 26 3 0.033922 13.5615 5.99985 14.9249 0 0 0
468 26 3 0.033922 12.9792 7.5644 15.6094 0 0 0
469 27 1 -0.091211 7.96623 6.18051 19.4844 0 0 0
470 27 1 -0.050311 9.18521 6.78097 18.8364 0 0 0
471 27 2 -0.174311 10.2203 5.67394 18.7664 0 0 0
472 27 2 -0.174311 11.4942 5.60337 19.2771 0 0 0
473 27 1 -0.050311 12.2205 6.56374 20.1719 0 0 0
474 27 1 -0.091211 13.4763 7.22627 19.5993 0 0 0
475 27 3 0.033922 7.57328 5.34295 18.9005 0 0 0
476 27 3 0.033922 7.20673 6.96798 19.4807 0 0 0
477 27 3 0.033922 8.18833 5.86963 20.5095 0 0 0
478 27 3 0.046089 8.96923 7.02146 17.7912 0 0 0
479 27 3 0.046089 9.59958 7.63508 19.3801 0 0 0
480 27 4 0.121889 9.83406 4.79663 18.2571 0 0 0
481 27 4 0.121889 12.0969 4.75303 18.9739 0 0 0
482 27 3 0.046089 12.6606 5.95289 20.9657 0 0 0
483 27 3 0.046089 11.5051 7.27024 20.6032 0 0 0
484 27 3 0.033922 13.9467 7.69865 20.4668 0 0 0
485 27 3 0.033922 14.1085 6.43099 19.1933 0 0 0
486 27 3 0.033922 13.2611 7.99042 18.8465 0 0 0
487 28 1 -0.091211 7.62024 10.8899 1.37189 0 0 0
488 28 1 -0.050311 8.83879 11.7259 1.02112 0 0 0
489 28 2 -0.174311 9.95966 10.797 0.624513 0 0 0
490 28 2 -0.174311 11.0695 10.378 1.29338 0 0 0
491 28 1 -0.050311 11.5113 10.6756 2.66831 0 0 0
492 28 1 -0.091211 12.9656 11.1544 2.68417 0 0 0
493 28 3 0.033922 7.15493 10.3884 0.518099 0 0 0
494 28 3 0.033922 6.89969 11.5735 1.83063 0 0 0
495 28 3 0.033922 7.87143 10.1452 2.13295 0 0 0
496 28 3 0.046089 8.55651 12.3262 0.151139 0 0 0
497 28 3 0.046089 9.05324 12.4232 1.83641 0 0 0
498 28 4 0.121889 10.0188 10.4684 -0.40837 0 0 0
499 28 4 0.121889 11.6629 9.73006 0.655804 0 0 0
500 28 3 0.046089 11.4664 9.79481 3.31569 0 0 0
501 28 3 0.046089 10.8899 11.4503 3.12703 0 0 0
502 28 3 0.033922 13.3203 11.1266 3.71875 0 0 0
503 28 3 0.033922 13.6231 10.5403 2.0617 0 0 0
504 28 3 0.033922 12.9727 12.2089 2.39302 0 0 0
505 29 1 -0.091211 7.80994 11.2313 10.8274 0 0 0
506 29 1 -0.050311 8.88334 11.9651 10.0174 0 0 0
507 29 2 -0.174311 9.89106 11.002 9.4073 0 0 0
508 29 2 -0.174311 11.1269 10.5135 9.82871 0 0 0
509 29 1 -0.050311 11.6709 10.6744 11.2045 0 0 0
510 29 1 -0.091211 13.0888 11.2262 11.2523 0 0 0
511 29 3 0.033922 7.09022 10.7294 10.1739 0 0 0
512 29 3 0.033922 7.32492 11.9863 11.4532 0 0 0
513 29 3 0.033922 8.31832 10.4751 11.4329 0 0 0
514 29 3 0.046089 8.36856 12.4372 9.1754 0 0 0
515 29 3 0.046089 9.401 12.6932 10.6489 0 0 0
516 29 4 0.121889 9.69624 10.5589 8.43572 0 0 0
517 29 4 0.121889 11.6512 9.82774 9.17051 0 0 0
518 29 3 0.046089 11.7708 9.6788 11.6467 0 0 0
519 29 3 0.046089 11.0326 11.2887 11.8465 0 0 0
520 29 3 0.033922 13.5261 10.9994 12.2292 0 0 0
521 29 3 0.033922 13.6789 10.8023 10.4343 0 0 0
522 29 3 0.033922 12.9991 12.3111 11.144 0 0 0
523 30 1 -0.091211 7.67278 10.6878 14.6108 0 0 0
524 30 1 -0.050311 9.03771 11.3928 14.7293 0 0 0
525 30 2 -0.174311 10.0195 10.4967 14.0762 0 0 0
526 30 2 -0.174311 11.2263 10.0874 14.5157 0 0 0
527 30 1 -0.050311 11.9754 10.4784 15.7661 0 0 0
528 30 1 -0.091211 13.3182 11.1636 15.434 0 0 0
529 30 3 0.033922 7.45026 10.2651 13.6265 0 0 0
530 30 3 0.033922 6.89242 11.4255 14.82 0 0 0
531 30 3 0.033922 7.60927 9.90042 15.3677 0 0 0
532 30 3 0.046089 9.02513 12.3525 14.2042 0 0 0
533 30 3 0.046089 9.35979 11.5311 15.7657 0 0 0
534 30 4 0.121889 9.75184 10.1317 13.0895 0 0 0
535 30 4 0.121889 11.7363 9.36716 13.8837 0 0 0
536 30 3 0.046089 12.2066 9.55869 16.3116 0 0 0
537 30 3 0.046089 11.3866 11.1181 16.4301 0 0 0
538 30 3 0.033922 13.2698 11.6332 14.447 0 0 0
539 30 3 0.033922 13.4704 11.9268 16.203 0 0 0
540 30 3 0.033922 14.1421 10.4468 15.5002 0 0 0
541 31 1 -0.091211 7.8921 11.3037 18.937 0 0 0
542 31 1 -0.050311 9.3351 11.8081 19.0737 0 0 0
543 31 2 -0.174311 10.244 10.7443 18.65 0 0 0
544 31 2 -0.174311 11.5309 10.4278 19.0261 0 0 0
545 31 1 -0.050311 12.2943 10.8468 20.235 0 0 0
546 31 1 -0.091211 13.6553 11.3703 19.9221 0 0 0
547 31 3 0.033922 7.68917 11.1329 17.8756 0 0 0
548 31 3 0.033922 7.18464 12.0252 19.3565 0 0 0
549 31 3 0.033922 7.77719 10.3411 19.4438 0 0 0
550 31 3 0.046089 9.45234 12.6566 18.3931 0 0 0
551 31 3 0.046089 9.53617 12.0655 20.1178 0 0 0
552 31 4 0.121889 9.9566 10.1754 17.7713 0 0 0
553 31 4 0.121889 12.0302 9.65042 18.4564 0 0 0
554 31 3 0.046089 12.4354 9.96151 20.862 0 0 0
555 31 3 0.046089 11.7709 11.6037 20.8266 0 0 0
556 31 3 0.033922 14.3192 11.1263 20.7569 0 0 0
557 31 3 0.033922 14.0654 10.9819 18.9851 0 0 0
558 31 3 0.033922 13.5924 12.4622 19.8995 0 0 0
559 32 1 -0.091211 7.54343 16.0673 1.29716 0 0 0
560 32 1 -0.050311 8.98001 16.427 1.65265 0 0 0
561 32 2 -0.174311 9.89352 15.3767 1.11602 0 0 0
562 32 2 -0.174311 11.1481 15.0155 1.61381 0 0 0
563 32 1 -0.050311 11.8153 15.5621 2.86015 0 0 0
564 32 1 -0.091211 13.3394 15.5637 2.60911 0 0 0
565 32 3 0.033922 7.44562 15.8278 0.234165 0 0 0
566 32 3 0.033922 6.8949 16.9101 1.55411 0 0 0
567 32 3 0.033922 7.23555 15.2004 1.8892 0 0 0
568 32 3 0.046089 9.26234 17.3367 1.11447 0 0 0
569 32 3 0.046089 9.03527 16.5468 2.7387 0 0 0
570 32 4 0.121889 9.66246 14.8326 0.205627 0 0 0
571 32 4 0.121889 11.7119 14.2238 1.13055 0 0 0
572 32 3 0.046089 11.6177 14.886 3.69726 0 0 0
573 32 3 0.046089 11.4419 16.5515 3.14005 0 0 0
574 32 3 0.033922 13.8293 15.398 3.57322 0 0 0
575 32 3 0.033922 13.6227 14.775 1.90589 0 0 0
576 32 3 0.033922 13.6681 16.5406 2.24251 0 0 0
577 33 1 -0.091211 7.87725 15.9778 10.1667 0 0 0
578 33 1 -0.050311 9.14572 16.661 9.69364 0 0 0
579 33 2 -0.174311 10.1324 15.5884 9.25971 0 0 0
580 33 2 -0.174311 11.3874 15.2307 9.67068 0 0 0
581 33 1 -0.050311 12.11 15.8124 10.8397 0 0 0
582 33 1 -0.091211 13.6614 15.6891 10.708 0 0 0
583 33 3 0.033922 7.39724 15.4351 9.34697 0 0 0
584 33 3 0.033922 7.13706 16.6995 10.5248 0 0 0
585 33 3 0.033922 8.0406 15.2742 10.9884 0 0 0
586 33 3 0.046089 8.96961 17.2913 8.81698 0 0 0
587 33 3 0.046089 9.54664 17.296 10.4892 0 0 0
588 33 4 0.121889 9.78616 15.0055 8.41204 0 0 0
589 33 4 0.121889 11.8374 14.4309 9.09092 0 0 0
590 33 3 0.046089 11.8607 15.2648 11.7534 0 0 0
591 33 3 0.046089 11.7956 16.8513 10.9757 0 0 0
592 33 3 0.033922 14.1092 16.5498 11.2136 0 0 0
593 33 3 0.033922 13.9835 14.8102 11.2742 0 0 0
594 33 3 0.033922 13.9626 15.6411 9.65733 0 0 0
595 34 1 -0.091211 7.79167 15.5768 15.3494 0 0 0
596 34 1 -0.050311 8.78678 16.3385 14.4375 0 0 0
597 34 2 -0.174311 9.71336 15.2787 13.9226 0 0 0
598 34 2 -0.174311 10.9575 14.9969 14.4374 0 0 0
599 34 1 -0.050311 11.6194 15.445 15.7013 0 0 0
600 34 1 -0.091211 12.97 16.178 15.5323 0 0 0
601 34 3 0.033922 7.07847 15.1132 14.6614 0 0 0
602 34 3 0.033922 7.33574 16.2967 16.0356 0 0 0
603 34 3 0.033922 8.28122 14.7828 15.921 0 0 0
604 34 3 0.046089 8.21797 16.7882 13.6182 0 0 0
605 34 3 0.046089 9.3382 17.0612 15.0461 0 0 0
606 34 4 0.121889 9.49751 14.8092 12.968 0 0 0
607 34 4 0.121889 11.5107 14.3279 13.7856 0 0 0
608 34 3 0.046089 11.8584 14.5452 16.2757 0 0 0
609 34 3 0.046089 10.8949 16.0367 16.2687 0 0 0
610 34 3 0.033922 13.6564 15.7935 16.2926 0 0 0
611 34 3 0.033922 13.3627 15.9117 14.5465 0 0 0
612 34 3 0.033922 12.9312 17.2655 15.6445 0 0 0
613 35 1 -0.091211 7.81318 16.1183 19.2598 0 0 0
614 35 1 -0.050311 9.25665 16.5507 19.0273 0 0 0
615 35 2 -0.174311 10.0012 15.3389 18.6301 0 0 0
616 35 2 -0.174311 11.2083 14.9201 19.0833 0 0 0
617 35 1 -0.050311 12.0713 15.3665 20.2044 0 0 0
618 35 1 -0.091211 13.3812 16.0361 19.7751 0 0 0
619 35 3 0.033922 7.3275 15.7578 18.3482 0 0 0