ITEM: TIMESTEP
91400
ITEM: NUMBER OF ATOMS
1800
ITEM: BOX BOUNDS pp pp pp
-5.2688792353684590e+00 4.4076894735367198e+01
1.0839318795573014e+00 2.0524723620443115e+01
9.1585740281077577e-02 2.1162147759718312e+01
ITEM: ATOMS id mol type q x y z ix iy iz
1 1 1 -0.091211 7.1237 6.16086 16.1297 0 -1 0
2 1 1 -0.050311 6.27071 7.37447 16.3 0 -1 0
3 1 2 -0.174311 7.09228 8.67745 16.3325 0 -1 0
4 1 2 -0.174311 6.63575 9.95045 16.2968 0 -1 0
5 1 1 -0.050311 5.21207 10.3012 16.4085 0 -1 0
6 1 1 -0.091211 4.98089 11.4648 17.3727 0 -1 0
7 1 3 0.033922 7.71103 6.19921 15.2076 0 -1 0
8 1 3 0.033922 6.52748 5.24379 16.1403 0 -1 0
9 1 3 0.033922 7.77082 6.10037 17.0096 0 -1 0
10 1 3 0.046089 5.54442 7.35925 15.4821 0 -1 0
11 1 3 0.046089 5.77622 7.23643 17.2659 0 -1 0
12 1 4 0.121889 8.14955 8.50532 16.1578 0 -1 0
13 1 4 0.121889 7.46086 10.6492 16.2025 0 -1 0
14 1 3 0.046089 4.63278 9.41489 16.6833 0 -1 0
15 1 3 0.046089 4.97887 10.6205 15.3885 0 -1 0
16 1 3 0.033922 3.92874 11.7641 17.3758 0 -1 0
17 1 3 0.033922 5.28209 11.2718 18.4065 0 -1 0
18 1 3 0.033922 5.54656 12.2994 16.9484 0 -1 0
19 2 1 -0.091211 5.34647 5.58917 8.85797 0 0 0
20 2 1 -0.050311 4.52588 5.51813 10.0914 0 0 0
21 2 2 -0.174311 5.39213 5.20324 11.3201 0 0 0
22 2 2 -0.174311 5.12438 4.22979 12.2485 0 0 0
23 2 1 -0.050311 3.77685 3.62571 12.3261 0 0 0
24 2 1 -0.091211 3.46227 3.41806 13.7999 0 0 0
25 2 3 0.033922 5.72772 4.60381 8.57456 0 0 0
26 2 3 0.033922 6.17162 6.2757 9.06872 0 0 0
27 2 3 0.033922 4.84174 5.926 7.94778 0 0 0
28 2 3 0.046089 4.09785 6.50696 10.2801 0 0 0
29 2 3 0.046089 3.63327 4.89806 9.96743 0 0 0
30 2 4 0.121889 6.39025 5.61444 11.4326 0 0 0
31 2 4 0.121889 5.85869 3.83787 12.9451 0 0 0
32 2 3 0.046089 3.79413 2.59625 11.9566 0 0 0
33 2 3 0.046089 3.0463 4.30004 11.8699 0 0 0
34 2 3 0.033922 2.39896 3.21258 13.954 0 0 0
35 2 3 0.033922 3.95673 2.54201 14.2296 0 0 0
36 2 3 0.033922 3.65704 4.30963 14.403 0 0 0
37 3 1 -0.091211 -0.451449 5.04707 16.5451 0 0 0
38 3 1 -0.050311 0.570181 5.84021 17.356 0 0 0
39 3 2 -0.174311 1.94686 5.17231 17.3279 0 0 0
40 3 2 -0.174311 2.96273 5.36456 18.2321 0 0 0
41 3 1 -0.050311 2.90567 6.38802 19.3762 0 0 0
42 3 1 -0.091211 3.6036 5.8702 20.5793 0 0 0
43 3 3 0.033922 0.0812097 4.74737 15.6378 0 0 0
44 3 3 0.033922 -1.33595 5.63206 16.2767 0 0 0
45 3 3 0.033922 -0.689846 4.14044 17.1088 0 0 0
46 3 3 0.046089 0.602522 6.88408 17.0306 0 0 0
47 3 3 0.046089 0.154285 5.97411 18.3589 0 0 0
48 3 4 0.121889 2.19779 4.45606 16.552 0 0 0
49 3 4 0.121889 3.90215 4.82874 18.1406 0 0 0
50 3 3 0.046089 1.85754 6.55385 19.6417 0 0 0
51 3 3 0.046089 3.23842 7.354 18.9853 0 0 0
52 3 3 0.033922 3.55617 6.55267 0.362346 0 0 1
53 3 3 0.033922 3.11307 4.95445 20.922 0 0 0
54 3 3 0.033922 4.6516 5.65974 20.347 0 0 0
55 4 1 -0.091211 -4.18828 17.7985 17.1287 0 -1 0
56 4 1 -0.050311 -3.75985 19.1234 16.534 0 -1 0
57 4 2 -0.174311 -3.03944 19.0254 15.212 0 -1 0
58 4 2 -0.174311 -1.68611 19.3492 15.0217 0 -1 0
59 4 1 -0.050311 -0.798336 19.9404 16.0922 0 -1 0
60 4 1 -0.091211 0.532067 20.1795 15.4342 0 -1 0
61 4 3 0.033922 -4.59752 17.1118 16.3819 0 -1 0
62 4 3 0.033922 -4.93538 17.9406 17.915 0 -1 0
63 4 3 0.033922 -3.32235 17.311 17.586 0 -1 0
64 4 3 0.046089 -4.6818 19.6726 16.322 0 -1 0
65 4 3 0.046089 -3.14888 19.6887 17.2438 0 -1 0
66 4 4 0.121889 -3.57518 18.5226 14.4131 0 -1 0
67 4 4 0.121889 -1.31556 19.1339 14.0245 0 -1 0
68 4 3 0.046089 -0.751535 19.2413 16.9323 0 -1 0
69 4 3 0.046089 -1.15715 1.45302 16.4907 0 0 0
70 4 3 0.033922 0.4287 1.58032 14.7431 0 0 0
71 4 3 0.033922 1.22462 20.4224 16.2454 0 -1 0
72 4 3 0.033922 0.928796 19.2796 14.9552 0 -1 0
73 5 1 -0.091211 -1.65566 8.92885 8.57296 0 0 0
74 5 1 -0.050311 -3.03982 9.00048 9.1946 0 0 0
75 5 2 -0.174311 -3.60827 10.3858 9.21766 0 0 0
76 5 2 -0.174311 -4.6888 10.7541 8.51284 0 0 0
77 5 1 -0.050311 43.9384 9.86411 7.44313 -1 0 0
78 5 1 -0.091211 43.3027 10.7841 6.44274 -1 0 0
79 5 3 0.033922 -1.59682 9.2436 7.52695 0 0 0
80 5 3 0.033922 -1.27104 7.92398 8.77017 0 0 0
81 5 3 0.033922 -1.03417 9.63955 9.12547 0 0 0
82 5 3 0.046089 -3.67756 8.26448 8.6964 0 0 0
83 5 3 0.046089 -2.95824 8.70065 10.2435 0 0 0
84 5 4 0.121889 -3.14085 11.0336 9.95242 0 0 0
85 5 4 0.121889 -5.03531 11.7719 8.6615 0 0 0
86 5 3 0.046089 43.2439 9.16958 7.9247 -1 0 0
87 5 3 0.046089 -4.58673 9.40665 6.8828 0 0 0
88 5 3 0.033922 44.0551 11.5023 6.10387 -1 0 0
89 5 3 0.033922 42.97 10.1353 5.62729 -1 0 0
90 5 3 0.033922 42.5425 11.4488 6.86324 -1 0 0
91 6 1 -0.091211 6.95518 3.39592 1.00235 0 0 1
92 6 1 -0.050311 5.51671 3.40998 1.46858 0 0 1
93 6 2 -0.174311 5.25684 2.33005 2.52841 0 0 1
94 6 2 -0.174311 4.85267 2.61551 3.8068 0 0 1
95 6 1 -0.050311 4.78256 4.00978 4.54634 0 0 1
96 6 1 -0.091211 6.05162 4.16976 5.32231 0 0 1
97 6 3 0.033922 7.22893 4.11732 0.22692 0 0 1
98 6 3 0.033922 7.06085 2.36344 0.656748 0 0 1
99 6 3 0.033922 7.63004 3.5974 1.83937 0 0 1
100 6 3 0.046089 5.32867 4.41328 1.86184 0 0 1
101 6 3 0.046089 4.86294 3.34099 0.594245 0 0 1
102 6 4 0.121889 5.27271 1.29253 2.21012 0 0 1
103 6 4 0.121889 4.52186 1.78703 4.42503 0 0 1
104 6 3 0.046089 3.95143 3.94983 5.25503 0 0 1
105 6 3 0.046089 4.69474 4.86136 3.86535 0 0 1
106 6 3 0.033922 6.11607 5.20859 5.6589 0 0 1
107 6 3 0.033922 6.01882 3.46608 6.15921 0 0 1
108 6 3 0.033922 6.9106 3.92909 4.68917 0 0 1
109 7 1 -0.091211 32.9946 2.06883 15.9248 -1 1 -1
110 7 1 -0.050311 32.9122 3.31304 15.0887 -1 1 -1
111 7 2 -0.174311 33.2976 4.51156 15.871 -1 1 -1
112 7 2 -0.174311 32.9774 5.79884 15.4963 -1 1 -1
113 7 1 -0.050311 32.3318 6.23973 14.1951 -1 1 -1
114 7 1 -0.091211 32.2653 7.74987 14.0499 -1 1 -1
115 7 3 0.033922 32.3261 2.25355 16.7707 -1 1 -1
116 7 3 0.033922 34.0205 1.96937 16.2912 -1 1 -1
117 7 3 0.033922 32.7418 1.17026 15.3544 -1 1 -1
118 7 3 0.046089 33.6837 3.16968 14.3266 -1 1 -1
119 7 3 0.046089 31.9938 3.55375 14.5454 -1 1 -1
120 7 4 0.121889 33.9263 4.32493 16.7358 -1 1 -1
121 7 4 0.121889 33.3513 6.5959 16.131 -1 1 -1
122 7 3 0.046089 31.3303 5.82057 14.0611 -1 1 -1
123 7 3 0.046089 32.9424 5.86114 13.3703 -1 1 -1
124 7 3 0.033922 33.2999 8.10082 13.9949 -1 1 -1
125 7 3 0.033922 31.5859 7.9639 13.2196 -1 1 -1
126 7 3 0.033922 31.7958 8.20718 14.9257 -1 1 -1
127 8 1 -0.091211 -4.45678 7.04841 1.87348 0 0 1
128 8 1 -0.050311 -5.03793 8.32931 1.28083 0 0 1
129 8 2 -0.174311 42.8662 8.04182 1.021 -1 0 1
130 8 2 -0.174311 41.7534 8.26364 1.82293 -1 0 1
131 8 1 -0.050311 41.8111 9.02824 3.11293 -1 0 1
132 8 1 -0.091211 40.4092 9.51471 3.50473 -1 0 1
133 8 3 0.033922 -4.56942 6.21372 1.17544 0 0 1
134 8 3 0.033922 -4.85377 6.78555 2.85834 0 0 1
135 8 3 0.033922 -3.38555 7.26023 1.93826 0 0 1
136 8 3 0.046089 -4.90869 9.09491 2.0514 0 0 1
137 8 3 0.046089 -4.54218 8.60597 0.345767 0 0 1
138 8 4 0.121889 42.6064 7.52668 21.1722 -1 0 0
139 8 4 0.121889 40.8478 7.82219 1.41905 -1 0 1
140 8 3 0.046089 42.466 9.90229 3.05173 -1 0 1
141 8 3 0.046089 42.194 8.3605 3.89019 -1 0 1
142 8 3 0.033922 40.4621 10.1994 4.35623 -1 0 1
143 8 3 0.033922 40.0946 10.0443 2.60076 -1 0 1
144 8 3 0.033922 39.7128 8.70065 3.72588 -1 0 1
145 9 1 -0.091211 33.3423 8.05985 19.2667 -1 1 0
146 9 1 -0.050311 33.9181 9.33708 19.8876 -1 1 0
147 9 2 -0.174311 35.395 9.39802 19.5559 -1 1 0
148 9 2 -0.174311 36.4848 8.83472 20.2373 -1 1 0
149 9 1 -0.050311 36.4795 7.93759 0.358797 -1 1 1
150 9 1 -0.091211 37.7611 8.08645 1.24465 -1 1 1
151 9 3 0.033922 33.4901 8.06664 18.1828 -1 1 0
152 9 3 0.033922 32.3281 7.91065 19.6483 -1 1 0
153 9 3 0.033922 33.9513 7.22652 19.629 -1 1 0
154 9 3 0.046089 33.4193 10.255 19.5632 -1 1 0
155 9 3 0.046089 33.8725 9.29685 20.9798 -1 1 0
156 9 4 0.121889 35.7127 9.9128 18.6547 -1 1 0
157 9 4 0.121889 37.4571 9.02618 19.7946 -1 1 0
158 9 3 0.046089 36.4106 6.94483 -0.0953948 -1 1 1
159 9 3 0.046089 35.5894 7.98162 0.993164 -1 1 1
160 9 3 0.033922 38.1803 9.09328 1.16023 -1 1 1
161 9 3 0.033922 37.6137 7.7997 2.28999 -1 1 1
162 9 3 0.033922 38.5263 7.51314 0.713305 -1 1 1
163 10 1 -0.091211 7.12351 9.07976 7.2954 0 0 1
164 10 1 -0.050311 7.66831 7.89814 6.50827 0 0 1
165 10 2 -0.174311 9.14363 8.02426 6.34121 0 0 1
166 10 2 -0.174311 9.79606 7.6106 5.16304 0 0 1
167 10 1 -0.050311 9.18967 6.87066 4.03771 0 0 1
168 10 1 -0.091211 9.31004 7.645 2.70493 0 0 1
169 10 3 0.033922 7.84412 9.60624 7.92799 0 0 1
170 10 3 0.033922 6.21341 8.77468 7.82005 0 0 1
171 10 3 0.033922 6.82742 9.87568 6.60586 0 0 1
172 10 3 0.046089 7.38986 6.93861 6.95368 0 0 1
173 10 3 0.046089 7.194 8.07506 5.53854 0 0 1
174 10 4 0.121889 9.63299 8.5149 7.17656 0 0 1
175 10 4 0.121889 10.8749 7.70333 5.08968 0 0 1
176 10 3 0.046089 8.11712 6.68298 4.14258 0 0 1
177 10 3 0.046089 9.62919 5.87991 3.88992 0 0 1
178 10 3 0.033922 8.92893 8.65082 2.90418 0 0 1
179 10 3 0.033922 10.382 7.67767 2.48933 0 0 1
180 10 3 0.033922 8.79206 7.18435 1.85868 0 0 1
181 11 1 -0.091211 0.0883987 9.98708 18.2659 0 0 0
182 11 1 -0.050311 -0.297509 11.3402 17.5627 0 0 0
183 11 2 -0.174311 -1.4706 11.932 18.3126 0 0 0
184 11 2 -0.174311 -1.36545 12.6672 19.4686 0 0 0
185 11 1 -0.050311 -0.145094 12.9934 20.2913 0 0 0
186 11 1 -0.091211 -0.264681 14.4802 20.7634 0 0 0
187 11 3 0.033922 0.778351 9.45619 17.6035 0 0 0
188 11 3 0.033922 -0.781261 9.36662 18.5011 0 0 0
189 11 3 0.033922 0.545898 10.0018 19.2595 0 0 0
190 11 3 0.046089 0.544485 12.0265 17.4337 0 0 0
191 11 3 0.046089 -0.628571 11.1232 16.5429 0 0 0
192 11 4 0.121889 -2.42206 11.88 17.793 0 0 0
193 11 4 0.121889 -2.32122 13.0019 19.8591 0 0 0
194 11 3 0.046089 0.822751 12.8823 19.7937 0 0 0
195 11 3 0.046089 -0.22775 12.2727 0.0394085 0 0 1
196 11 3 0.033922 -0.00924088 15.1127 19.9083 0 0 0
197 11 3 0.033922 -1.25842 14.6836 0.102422 0 0 1
198 11 3 0.033922 0.434871 14.664 0.513554 0 0 1
199 12 1 -0.091211 4.90187 8.9357 11.2973 0 0 0
200 12 1 -0.050311 3.55613 8.7063 11.986 0 0 0
201 12 2 -0.174311 2.45407 8.84915 10.9717 0 0 0
202 12 2 -0.174311 1.18043 8.75441 11.4096 0 0 0
203 12 1 -0.050311 0.722708 8.59134 12.8402 0 0 0
204 12 1 -0.091211 0.203481 7.18578 13.0799 0 0 0
205 12 3 0.033922 5.73038 8.56749 11.9094 0 0 0
206 12 3 0.033922 5.06094 10.0148 11.2148 0 0 0
207 12 3 0.033922 4.8877 8.51832 10.2863 0 0 0
208 12 3 0.046089 3.65047 7.66764 12.316 0 0 0
209 12 3 0.046089 3.45005 9.34494 12.8678 0 0 0
210 12 4 0.121889 2.67148 9.11825 9.9429 0 0 0
211 12 4 0.121889 0.370959 8.76434 10.6867 0 0 0
212 12 3 0.046089 -0.0550935 9.30138 13.136 0 0 0
213 12 3 0.046089 1.54916 8.81498 13.5211 0 0 0
214 12 3 0.033922 -0.641165 6.92592 12.4352 0 0 0
215 12 3 0.033922 0.995996 6.4386 12.9787 0 0 0
216 12 3 0.033922 -0.144762 7.05559 14.1087 0 0 0
217 13 1 -0.091211 -1.66635 16.4461 8.0735 0 0 1
218 13 1 -0.050311 -0.259004 16.2173 8.61023 0 0 1
219 13 2 -0.174311 0.244164 14.8095 8.31495 0 0 1
220 13 2 -0.174311 0.246954 13.7163 9.12517 0 0 1
221 13 1 -0.050311 -0.0965374 13.678 10.5903 0 0 1
222 13 1 -0.091211 0.191753 12.2593 11.1256 0 0 1
223 13 3 0.033922 -1.96494 17.4583 8.36129 0 0 1
224 13 3 0.033922 -2.31868 15.721 8.56884 0 0 1
225 13 3 0.033922 -1.87843 16.3707 7.00299 0 0 1
226 13 3 0.046089 0.43085 16.9053 8.11294 0 0 1
227 13 3 0.046089 -0.289616 16.5418 9.65445 0 0 1
228 13 4 0.121889 0.367112 14.6734 7.24518 0 0 1
229 13 4 0.121889 0.449475 12.7777 8.6193 0 0 1
230 13 3 0.046089 -1.11821 14.0084 10.7992 0 0 1
231 13 3 0.046089 0.525967 14.3725 11.162 0 0 1
232 13 3 0.033922 1.16207 11.8884 10.7828 0 0 1
233 13 3 0.033922 0.144626 12.2162 12.2177 0 0 1
234 13 3 0.033922 -0.578369 11.595 10.7228 0 0 1
235 14 1 -0.091211 13.7639 7.92403 6.57355 0 0 0
236 14 1 -0.050311 13.7462 7.35281 5.11574 0 0 0
237 14 2 -0.174311 13.4345 5.87076 5.14402 0 0 0
238 14 2 -0.174311 14.136 4.73292 4.71761 0 0 0
239 14 1 -0.050311 15.5122 4.78635 4.17767 0 0 0
240 14 1 -0.091211 16.5803 4.31433 5.17415 0 0 0
241 14 3 0.033922 14.6149 7.60242 7.18104 0 0 0
242 14 3 0.033922 12.8281 7.5981 7.03685 0 0 0
243 14 3 0.033922 13.8112 9.01669 6.55187 0 0 0
244 14 3 0.046089 12.9616 7.91769 4.60383 0 0 0
245 14 3 0.046089 14.5901 7.62574 4.47548 0 0 0
246 14 4 0.121889 12.4099 5.73088 5.47375 0 0 0
247 14 4 0.121889 13.5475 3.827 4.61304 0 0 0
248 14 3 0.046089 15.7304 5.8403 3.98226 0 0 0
249 14 3 0.046089 15.5125 4.29721 3.1992 0 0 0
250 14 3 0.033922 16.5844 3.22716 5.29524 0 0 0
251 14 3 0.033922 17.6265 4.52057 4.93001 0 0 0
252 14 3 0.033922 16.4227 4.68275 6.19204 0 0 0
253 15 1 -0.091211 1.37778 3.12225 4.03327 0 1 1
254 15 1 -0.050311 1.32673 4.34745 3.06606 0 1 1
255 15 2 -0.174311 -0.107843 4.80994 2.87937 0 1 1
256 15 2 -0.174311 -0.405119 6.03408 2.26347 0 1 1
257 15 1 -0.050311 0.614244 7.11008 1.93137 0 1 1
258 15 1 -0.091211 0.137105 7.75476 0.619189 0 1 1
259 15 3 0.033922 1.34606 3.40091 5.09063 0 1 1
260 15 3 0.033922 2.3563 2.64742 3.91656 0 1 1
261 15 3 0.033922 0.683322 2.28766 3.89987 0 1 1
262 15 3 0.046089 2.09309 5.07591 3.34652 0 1 1
263 15 3 0.046089 1.52837 3.90282 2.08713 0 1 1
264 15 4 0.121889 -0.910263 4.1534 3.20041 0 1 1
265 15 4 0.121889 -1.447 6.24911 2.04847 0 1 1
266 15 3 0.046089 1.61267 6.66364 1.91058 0 1 1
267 15 3 0.046089 0.532604 7.852 2.73108 0 1 1
268 15 3 0.033922 -0.133652 7.0701 20.8807 0 1 0
269 15 3 0.033922 -0.73304 8.39318 0.797717 0 1 1
270 15 3 0.033922 0.850839 8.48991 0.236113 0 1 1
271 16 1 -0.091211 9.47959 5.81786 9.4546 0 1 0
272 16 1 -0.050311 10.2098 5.0176 8.37941 0 1 0
273 16 2 -0.174311 9.30351 3.9493 7.82228 0 1 0
274 16 2 -0.174311 9.30746 2.56895 8.0355 0 1 0
275 16 1 -0.050311 10.3404 1.73751 8.85984 0 1 0
276 16 1 -0.091211 11.3347 20.3029 7.94833 0 0 0
277 16 3 0.033922 9.48157 5.27026 10.4016 0 1 0
278 16 3 0.033922 8.4198 5.95128 9.21871 0 1 0
279 16 3 0.033922 9.92473 6.77513 9.74109 0 1 0
280 16 3 0.046089 10.5737 5.66722 7.57802 0 1 0
281 16 3 0.046089 11.1184 4.57413 8.797 0 1 0
282 16 4 0.121889 8.56171 4.48985 7.24302 0 1 0
283 16 4 0.121889 8.492 2.02503 7.56949 0 1 0
284 16 3 0.046089 9.77513 1.11792 9.56209 0 1 0
285 16 3 0.046089 11.0557 2.32296 9.44491 0 1 0
286 16 3 0.033922 10.8463 19.4621 7.44708 0 0 0
287 16 3 0.033922 11.7417 1.59739 7.24818 0 1 0
288 16 3 0.033922 12.2131 20.0095 8.53054 0 0 0
289 17 1 -0.091211 7.69233 12.5557 11.8542 0 0 0
290 17 1 -0.050311 8.59673 11.7717 10.9766 0 0 0
291 17 2 -0.174311 10.001 12.0314 11.3643 0 0 0
292 17 2 -0.174311 11.0701 11.2287 10.9499 0 0 0
293 17 1 -0.050311 11.021 10.1638 9.88548 0 0 0
294 17 1 -0.091211 12.1468 10.3399 8.86501 0 0 0
295 17 3 0.033922 6.66708 12.3459 11.5357 0 0 0
296 17 3 0.033922 7.88032 13.6302 11.7712 0 0 0
297 17 3 0.033922 7.84311 12.2893 12.9044 0 0 0
298 17 3 0.046089 8.37224 10.7111 11.1232 0 0 0
299 17 3 0.046089 8.41131 12.1116 9.95347 0 0 0
300 17 4 0.121889 10.1719 12.8033 12.108 0 0 0
301 17 4 0.121889 12.0186 11.4411 11.4329 0 0 0
302 17 3 0.046089 10.0786 10.2003 9.3313 0 0 0
303 17 3 0.046089 11.1316 9.144 10.2654 0 0 0
304 17 3 0.033922 12.3061 11.3938 8.61896 0 0 0
305 17 3 0.033922 13.0822 9.93274 9.25971 0 0 0
306 17 3 0.033922 11.8829 9.86103 7.91753 0 0 0
307 18 1 -0.091211 36.3749 8.84856 15.1671 -1 0 1
308 18 1 -0.050311 36.7149 7.69288 14.2428 -1 0 1
309 18 2 -0.174311 37.7015 7.94552 13.2387 -1 0 1
310 18 2 -0.174311 38.0385 7.16674 12.1304 -1 0 1
311 18 1 -0.050311 37.4883 5.76452 11.8706 -1 0 1
312 18 1 -0.091211 37.0822 5.62152 10.4256 -1 0 1
313 18 3 0.033922 35.8344 8.41355 16.0129 -1 0 1
314 18 3 0.033922 35.7684 9.63745 14.7127 -1 0 1
315 18 3 0.033922 37.3102 9.30225 15.5075 -1 0 1
316 18 3 0.046089 36.9974 6.82238 14.842 -1 0 1
317 18 3 0.046089 35.827 7.44443 13.6541 -1 0 1
318 18 4 0.121889 38.1164 8.94612 13.3069 -1 0 1
319 18 4 0.121889 38.8207 7.65945 11.5617 -1 0 1
320 18 3 0.046089 36.7127 5.46899 12.5831 -1 0 1
321 18 3 0.046089 38.2814 5.03063 12.0405 -1 0 1
322 18 3 0.033922 36.4961 6.51911 10.2078 -1 0 1
323 18 3 0.033922 37.9742 5.57711 9.79394 -1 0 1
324 18 3 0.033922 36.4824 4.75031 10.1464 -1 0 1
325 19 1 -0.091211 8.80234 8.89683 19.6858 0 0 -1
326 19 1 -0.050311 9.71859 9.9941 19.067 0 0 -1
327 19 2 -0.174311 10.8736 9.37252 18.3209 0 0 -1
328 19 2 -0.174311 12.1028 10.0047 18.2244 0 0 -1
329 19 1 -0.050311 12.5254 11.4031 18.6828 0 0 -1
330 19 1 -0.091211 13.9768 11.4532 18.973 0 0 -1
331 19 3 0.033922 8.0629 9.34881 20.3533 0 0 -1
332 19 3 0.033922 9.46924 8.19222 20.1911 0 0 -1
333 19 3 0.033922 8.2609 8.33161 18.9216 0 0 -1
334 19 3 0.046089 9.1249 10.6211 18.3954 0 0 -1
335 19 3 0.046089 10.0987 10.6418 19.8624 0 0 -1
336 19 4 0.121889 10.8112 8.36214 17.9295 0 0 -1
337 19 4 0.121889 12.8452 9.49482 17.6187 0 0 -1
338 19 3 0.046089 11.9737 11.7366 19.5666 0 0 -1
339 19 3 0.046089 12.3867 12.1274 17.8748 0 0 -1
340 19 3 0.033922 14.5252 10.6803 18.4268 0 0 -1
341 19 3 0.033922 14.4969 12.4015 18.8089 0 0 -1
342 19 3 0.033922 14.0328 11.2745 20.0508 0 0 -1
343 20 1 -0.091211 12.7946 17.6047 4.04836 0 -1 0
344 20 1 -0.050311 13.9756 18.3932 3.43149 0 -1 0
345 20 2 -0.174311 13.5466 19.8192 3.05249 0 -1 0
346 20 2 -0.174311 14.3346 1.24761 2.16573 0 0 0
347 20 1 -0.050311 15.7636 20.3887 1.80813 0 -1 0
348 20 1 -0.091211 16.8184 1.44015 2.82856 0 0 0
349 20 3 0.033922 11.9441 17.591 3.36054 0 -1 0
350 20 3 0.033922 12.442 18.1009 4.95726 0 -1 0
351 20 3 0.033922 13.1296 16.5986 4.31695 0 -1 0
352 20 3 0.046089 14.8828 18.469 4.03809 0 -1 0
353 20 3 0.046089 14.2745 17.8695 2.51875 0 -1 0
354 20 4 0.121889 12.5339 20.0575 3.36185 0 -1 0
355 20 4 0.121889 13.8663 2.18003 1.86685 0 0 0
356 20 3 0.046089 15.9766 1.30794 0.797366 0 0 0
357 20 3 0.046089 15.882 19.3013 1.79129 0 -1 0
358 20 3 0.033922 16.5938 2.47274 3.11125 0 0 0
359 20 3 0.033922 16.5838 20.3315 3.74492 0 -1 0
360 20 3 0.033922 17.8736 1.42909 2.54047 0 0 0
361 21 1 -0.091211 -4.35524 2.51848 2.32775 0 0 1
362 21 1 -0.050311 -3.75999 1.11511 2.15249 0 0 1
363 21 2 -0.174311 -2.38887 20.5352 2.73677 0 -1 1
364 21 2 -0.174311 -2.06702 20.0228 3.97155 0 -1 1
365 21 1 -0.050311 -3.07345 19.1662 4.79798 0 -1 1
366 21 1 -0.091211 -3.0628 17.6493 4.35776 0 -1 1
367 21 3 0.033922 -4.34314 2.81587 3.38041 0 0 1
368 21 3 0.033922 43.9774 2.65257 1.93766 -1 0 1
369 21 3 0.033922 -3.65561 3.15464 1.77781 0 0 1
370 21 3 0.046089 -4.50181 19.8898 2.60269 0 -1 1
371 21 3 0.046089 -3.698 20.2642 1.10001 0 -1 1
372 21 4 0.121889 -1.57661 1.62393 2.24907 0 0 1
373 21 4 0.121889 -1.10421 20.14 4.45865 0 -1 1
374 21 3 0.046089 -4.05575 19.5942 4.57778 0 -1 1
375 21 3 0.046089 -2.8836 19.2782 5.86946 0 -1 1
376 21 3 0.033922 -2.08092 17.1747 4.27279 0 -1 1
377 21 3 0.033922 -3.70771 16.9954 4.95198 0 -1 1
378 21 3 0.033922 -3.44262 17.5198 3.3401 0 -1 1
379 22 1 -0.091211 8.00414 13.5796 19.7624 0 -1 0
380 22 1 -0.050311 7.6747 13.6679 18.3152 0 -1 0
381 22 2 -0.174311 8.69041 14.6516 17.7036 0 -1 0
382 22 2 -0.174311 9.17301 14.6437 16.4118 0 -1 0
383 22 1 -0.050311 8.83843 13.5121 15.4504 0 -1 0
384 22 1 -0.091211 9.86806 12.3837 15.6325 0 -1 0
385 22 3 0.033922 7.56835 12.6929 20.2319 0 -1 0
386 22 3 0.033922 7.77849 14.5034 20.3031 0 -1 0
387 22 3 0.033922 9.09134 13.4613 19.787 0 -1 0
388 22 3 0.046089 7.77104 12.6841 17.8466 0 -1 0
389 22 3 0.046089 6.64613 14.0385 18.2792 0 -1 0
390 22 4 0.121889 9.18372 15.3929 18.324 0 -1 0
391 22 4 0.121889 9.94842 15.3656 16.176 0 -1 0
392 22 3 0.046089 8.81569 13.8873 14.4231 0 -1 0
393 22 3 0.046089 7.82309 13.1937 15.704 0 -1 0
394 22 3 0.033922 9.38546 11.5957 16.2179 0 -1 0
395 22 3 0.033922 9.96848 11.9555 14.6308 0 -1 0
396 22 3 0.033922 10.8278 12.7498 16.0085 0 -1 0
397 23 1 -0.091211 1.99809 12.1229 4.46055 0 0 0
398 23 1 -0.050311 0.914749 13.2082 4.61488 0 0 0
399 23 2 -0.174311 0.25033 13.5415 3.30292 0 0 0
400 23 2 -0.174311 -0.852253 12.9274 2.7099 0 0 0
401 23 1 -0.050311 -1.60153 11.7848 3.35793 0 0 0
402 23 1 -0.091211 -2.41376 11.0392 2.32859 0 0 0
403 23 3 0.033922 2.96189 12.5291 4.14005 0 0 0
404 23 3 0.033922 1.68874 11.3193 3.78591 0 0 0
405 23 3 0.033922 2.13338 11.5916 5.40712 0 0 0
406 23 3 0.046089 0.112977 12.7148 5.172 0 0 0
407 23 3 0.046089 1.2086 14.167 5.05182 0 0 0
408 23 4 0.121889 0.597032 14.3985 2.73423 0 0 0
409 23 4 0.121889 -1.18248 13.2839 1.73939 0 0 0
410 23 3 0.046089 -2.3414 12.129 4.08646 0 0 0
411 23 3 0.046089 -0.886172 11.1418 3.87883 0 0 0
412 23 3 0.033922 -3.14807 10.3854 2.80817 0 0 0
413 23 3 0.033922 -2.91427 11.7746 1.69203 0 0 0
414 23 3 0.033922 -1.76351 10.4263 1.69756 0 0 0
415 24 1 -0.091211 1.08341 17.4204 4.9602 0 0 0
416 24 1 -0.050311 2.55387 17.3601 5.32036 0 0 0
417 24 2 -0.174311 3.37844 18.1005 4.33211 0 0 0
418 24 2 -0.174311 4.74374 18.109 4.31326 0 0 0
419 24 1 -0.050311 5.67867 17.4105 5.33826 0 0 0
420 24 1 -0.091211 6.37899 18.3015 6.31863 0 0 0
421 24 3 0.033922 0.597348 18.3699 5.2027 0 0 0
422 24 3 0.033922 0.626492 16.6285 5.56079 0 0 0
423 24 3 0.033922 0.919464 17.2036 3.90059 0 0 0
424 24 3 0.046089 2.64609 17.6354 6.37505 0 0 0
425 24 3 0.046089 2.89329 16.3207 5.28863 0 0 0
426 24 4 0.121889 2.87075 18.8871 3.78306 0 0 0
427 24 4 0.121889 5.1802 18.739 3.54473 0 0 0
428 24 3 0.046089 6.43503 16.9021 4.73325 0 0 0
429 24 3 0.046089 5.10556 16.7753 6.0199 0 0 0
430 24 3 0.033922 7.13062 18.9346 5.83813 0 0 0
431 24 3 0.033922 5.55531 18.8956 6.72511 0 0 0
432 24 3 0.033922 6.83116 17.8125 7.18641 0 0 0
433 25 1 -0.091211 -0.0324121 3.37431 20.6205 0 0 0
434 25 1 -0.050311 0.913385 2.22228 21.0394 0 0 0
435 25 2 -0.174311 0.64106 1.02647 20.1248 0 0 0
436 25 2 -0.174311 0.57453 19.2178 20.656 0 -1 0
437 25 1 -0.050311 0.927497 18.647 0.952406 0 -1 1
438 25 1 -0.091211 1.86551 17.445 0.701302 0 -1 1
439 25 3 0.033922 -1.03561 2.98578 20.4224 0 0 0
440 25 3 0.033922 0.373565 3.83747 19.7164 0 0 0
441 25 3 0.033922 0.0673769 4.21893 0.237862 0 0 1
442 25 3 0.046089 1.90375 2.65198 20.8629 0 0 0
443 25 3 0.046089 0.812668 1.98831 1.03269 0 0 1
444 25 4 0.121889 0.411105 1.25125 19.0882 0 0 0
445 25 4 0.121889 0.384047 18.4381 19.9253 0 -1 0
446 25 3 0.046089 0.0168463 18.3622 1.48739 0 -1 1
447 25 3 0.046089 1.44476 19.3254 1.6371 0 -1 1
448 25 3 0.033922 2.74107 17.6591 21.1521 0 -1 0
449 25 3 0.033922 2.17256 17.1006 1.69313 0 -1 1
450 25 3 0.033922 1.32494 16.6925 0.119887 0 -1 1
451 26 1 -0.091211 42.162 14.7696 6.36948 -1 -1 1
452 26 1 -0.050311 42.6994 15.0892 4.97217 -1 -1 1
453 26 2 -0.174311 42.7089 13.8128 4.18471 -1 -1 1
454 26 2 -0.174311 42.1976 13.5964 2.93118 -1 -1 1
455 26 1 -0.050311 41.385 14.6011 2.1903 -1 -1 1
456 26 1 -0.091211 39.9421 14.5375 2.68664 -1 -1 1
457 26 3 0.033922 42.1627 15.5955 7.08671 -1 -1 1
458 26 3 0.033922 42.7029 13.9122 6.78056 -1 -1 1
459 26 3 0.033922 41.1029 14.5344 6.23014 -1 -1 1
460 26 3 0.046089 42.0024 15.8197 4.55102 -1 -1 1
461 26 3 0.046089 43.7433 15.4158 4.98799 -1 -1 1
462 26 4 0.121889 43.2381 12.9217 4.50703 -1 -1 1
463 26 4 0.121889 42.2526 12.5711 2.57933 -1 -1 1
464 26 3 0.046089 41.4724 14.2393 1.16165 -1 -1 1
465 26 3 0.046089 41.8161 15.6064 2.20183 -1 -1 1
466 26 3 0.033922 39.4042 15.3988 2.28 -1 -1 1
467 26 3 0.033922 39.4912 13.6105 2.32058 -1 -1 1
468 26 3 0.033922 39.7861 14.603 3.76739 -1 -1 1
469 27 1 -0.091211 16.7831 18.1427 19.594 0 0 -1
470 27 1 -0.050311 16.1835 16.9263 20.283 0 0 -1
471 27 2 -0.174311 16.1043 15.7921 19.3322 0 0 -1
472 27 2 -0.174311 16.3374 14.4386 19.7427 0 0 -1
473 27 1 -0.050311 16.6628 14.049 21.1733 0 0 -1
474 27 1 -0.091211 16.9499 12.6048 0.208447 0 0 0
475 27 3 0.033922 17.0814 18.8954 20.3296 0 0 -1
476 27 3 0.033922 16.183 18.6703 18.8469 0 0 -1
477 27 3 0.033922 17.6606 17.8873 18.9929 0 0 -1
478 27 3 0.046089 16.7229 16.6734 21.2004 0 0 -1
479 27 3 0.046089 15.1657 17.2343 20.5396 0 0 -1
480 27 4 0.121889 15.9048 15.9168 18.2726 0 0 -1
481 27 4 0.121889 16.3356 13.6415 19.006 0 0 -1
482 27 3 0.046089 15.8107 14.2357 0.762814 0 0 0
483 27 3 0.046089 17.4753 14.6631 0.502049 0 0 0
484 27 3 0.033922 17.8806 12.3551 20.7613 0 0 -1
485 27 3 0.033922 17.0179 12.2407 1.23775 0 0 0
486 27 3 0.033922 16.1013 12.1607 20.7504 0 0 -1
487 28 1 -0.091211 8.39474 17.9542 1.65692 0 -1 0
488 28 1 -0.050311 9.23677 16.6968 1.02498 0 -1 0
489 28 2 -0.174311 10.3922 17.2955 0.226909 0 -1 0
490 28 2 -0.174311 11.5133 16.5668 20.9974 0 -1 -1
491 28 1 -0.050311 11.7445 15.1681 0.355249 0 -1 0
492 28 1 -0.091211 12.5626 14.5344 20.331 0 -1 -1
493 28 3 0.033922 7.75868 17.6102 2.47771 0 -1 0
494 28 3 0.033922 7.74799 18.3901 0.889885 0 -1 0
495 28 3 0.033922 9.0283 18.7628 2.03309 0 -1 0
496 28 3 0.046089 9.59336 16.09 1.86247 0 -1 0
497 28 3 0.046089 8.61712 16.0233 0.425695 0 -1 0
498 28 4 0.121889 10.4484 18.3442 21.0234 0 -1 -1
499 28 4 0.121889 12.3417 16.984 20.4337 0 -1 -1
500 28 3 0.046089 10.8361 14.5587 0.355435 0 -1 0
501 28 3 0.046089 12.1091 15.0194 1.37582 0 -1 0
502 28 3 0.033922 12.8432 13.5416 20.6946 0 -1 -1
503 28 3 0.033922 11.9902 14.4679 19.4011 0 -1 -1
504 28 3 0.033922 13.4443 15.1506 20.1318 0 -1 -1
505 29 1 -0.091211 3.89994 8.59859 4.4401 0 0 0
506 29 1 -0.050311 3.00223 8.32946 5.68809 0 0 0
507 29 2 -0.174311 3.21044 6.90925 6.04103 0 0 0
508 29 2 -0.174311 2.27504 6.19988 6.7857 0 0 0
509 29 1 -0.050311 0.93023 6.74091 7.26529 0 0 0
510 29 1 -0.091211 0.410805 5.85351 8.45532 0 0 0
511 29 3 0.033922 3.68313 7.92474 3.60609 0 0 0
512 29 3 0.033922 4.96017 8.68203 4.69611 0 0 0
513 29 3 0.033922 3.60253 9.57393 4.04402 0 0 0
514 29 3 0.046089 3.31133 8.94747 6.53613 0 0 0
515 29 3 0.046089 1.96575 8.62923 5.50798 0 0 0
516 29 4 0.121889 4.1406 6.38871 5.83651 0 0 0
517 29 4 0.121889 2.68417 5.22393 7.02682 0 0 0
518 29 3 0.046089 0.228003 6.43646 6.48374 0 0 0
519 29 3 0.046089 0.865233 7.80315 7.51832 0 0 0
520 29 3 0.033922 0.507224 4.78476 8.24295 0 0 0
521 29 3 0.033922 0.919824 6.04988 9.40348 0 0 0
522 29 3 0.033922 -0.666181 5.98817 8.59155 0 0 0
523 30 1 -0.091211 0.438337 19.1078 11.7361 0 0 1
524 30 1 -0.050311 0.898202 20.2718 10.8976 0 0 1
525 30 2 -0.174311 0.250723 20.2676 9.50897 0 0 1
526 30 2 -0.174311 1.02366 1.06866 8.40787 0 1 1
527 30 1 -0.050311 2.51651 1.51927 8.43239 0 1 1
528 30 1 -0.091211 2.93422 1.87553 7.01097 0 1 1
529 30 3 0.033922 0.905485 18.1516 11.483 0 0 1
530 30 3 0.033922 -0.643948 18.9794 11.6426 0 0 1
531 30 3 0.033922 0.661787 19.287 12.7919 0 0 1
532 30 3 0.046089 0.603151 1.7699 11.3753 0 1 1
533 30 3 0.046089 1.9835 20.2249 10.7691 0 0 1
534 30 4 0.121889 -0.771616 19.911 9.43391 0 0 1
535 30 4 0.121889 0.581987 20.4679 7.41729 0 0 1
536 30 3 0.046089 3.0712 20.0725 8.75036 0 0 1
537 30 3 0.046089 2.74075 2.35268 9.10453 0 1 1
538 30 3 0.033922 3.95872 2.25717 6.97434 0 1 1
539 30 3 0.033922 2.86009 1.00467 6.35315 0 1 1
540 30 3 0.033922 2.2794 2.68733 6.6811 0 1 1
541 31 1 -0.091211 21.6322 20.3028 19.7059 0 0 0
542 31 1 -0.050311 21.1898 18.8124 19.8917 0 0 0
543 31 2 -0.174311 21.3097 18.1601 18.5407 0 0 0
544 31 2 -0.174311 21.0788 16.8642 18.2671 0 0 0
545 31 1 -0.050311 20.4219 15.8893 19.2484 0 0 0
546 31 1 -0.091211 19.5863 14.8005 18.4691 0 0 0
547 31 3 0.033922 21.7317 1.3365 20.6865 0 1 0
548 31 3 0.033922 21.0277 1.45532 19.0137 0 1 0
549 31 3 0.033922 22.628 20.2584 19.2555 0 0 0
550 31 3 0.046089 21.7526 18.2441 20.638 0 0 0
551 31 3 0.046089 20.1952 18.9156 20.3353 0 0 0
552 31 4 0.121889 21.7184 18.7706 17.7418 0 0 0
553 31 4 0.121889 21.2598 16.5745 17.2369 0 0 0
554 31 3 0.046089 19.9036 16.3611 20.0883 0 0 0
555 31 3 0.046089 21.314 15.3761 19.6189 0 0 0
556 31 3 0.033922 18.7662 15.3496 17.9974 0 0 0
557 31 3 0.033922 20.1894 14.1864 17.794 0 0 0
558 31 3 0.033922 19.1173 14.1497 19.2127 0 0 0
559 32 1 -0.091211 19.6109 3.79785 20.4745 0 1 -1
560 32 1 -0.050311 18.2982 3.35744 21.074 0 1 -1
561 32 2 -0.174311 17.1157 4.15743 20.4912 0 1 -1
562 32 2 -0.174311 16.1915 3.50663 19.694 0 1 -1
563 32 1 -0.050311 16.3003 2.11732 19.0273 0 1 -1
564 32 1 -0.091211 15.7081 2.129 17.6016 0 1 -1
565 32 3 0.033922 20.485 3.44859 21.0318 0 1 -1
566 32 3 0.033922 19.6365 4.87815 20.3045 0 1 -1
567 32 3 0.033922 19.6079 3.32186 19.4895 0 1 -1
568 32 3 0.046089 18.1208 2.27814 21.09 0 1 -1
569 32 3 0.046089 18.3168 3.67371 1.05045 0 1 0
570 32 4 0.121889 16.9028 5.16197 20.8427 0 1 -1
571 32 4 0.121889 15.2611 3.97521 19.3893 0 1 -1
572 32 3 0.046089 15.6532 1.43058 19.5808 0 1 -1
573 32 3 0.046089 17.3377 1.77049 19.0171 0 1 -1
574 32 3 0.033922 15.6575 1.13652 17.1444 0 1 -1
575 32 3 0.033922 14.6467 2.3893 17.6485 0 1 -1
576 32 3 0.033922 16.0907 2.8461 16.8695 0 1 -1
577 33 1 -0.091211 16.5142 12.4578 8.39133 0 0 0
578 33 1 -0.050311 16.1864 11.4572 9.39844 0 0 0
579 33 2 -0.174311 16.6111 11.9432 10.7832 0 0 0
580 33 2 -0.174311 16.041 11.4913 11.931 0 0 0
581 33 1 -0.050311 15.0286 10.3917 11.9188 0 0 0
582 33 1 -0.091211 15.0569 9.75169 13.3039 0 0 0
583 33 3 0.033922 17.5967 12.605 8.44658 0 0 0
584 33 3 0.033922 15.9353 13.3794 8.50187 0 0 0
585 33 3 0.033922 16.2565 12.0431 7.41242 0 0 0
586 33 3 0.046089 15.1049 11.2942 9.37789 0 0 0
587 33 3 0.046089 16.6698 10.5125 9.13311 0 0 0
588 33 4 0.121889 17.326 12.7534 10.8853 0 0 0
589 33 4 0.121889 16.4161 11.9104 12.8593 0 0 0
590 33 3 0.046089 15.1561 9.65414 11.1211 0 0 0
591 33 3 0.046089 14.0051 10.7444 11.7619 0 0 0
592 33 3 0.033922 14.5725 10.4312 14.0112 0 0 0
593 33 3 0.033922 14.4704 8.83032 13.3647 0 0 0
594 33 3 0.033922 16.1089 9.56372 13.5376 0 0 0
595 34 1 -0.091211 12.7116 16.784 8.12019 0 0 0
596 34 1 -0.050311 13.0117 15.3752 8.62785 0 0 0
597 34 2 -0.174311 12.201 15.0115 9.86998 0 0 0
598 34 2 -0.174311 12.749 14.5729 10.9752 0 0 0
599 34 1 -0.050311 14.1617 14.2274 11.2947 0 0 0
600 34 1 -0.091211 14.908 15.4856 11.7608 0 0 0
601 34 3 0.033922 12.7803 17.5284 8.91887 0 0 0
602 34 3 0.033922 11.6573 16.8246 7.83128 0 0 0
603 34 3 0.033922 13.3873 17.027 7.29493 0 0 0
604 34 3 0.046089 12.7249 14.7632 7.76774 0 0 0
605 34 3 0.046089 14.0971 15.2954 8.73836 0 0 0
606 34 4 0.121889 11.1321 15.1971 9.83806 0 0 0
607 34 4 0.121889 12.0284 14.3967 11.7674 0 0 0
608 34 3 0.046089 14.7254 13.7343 10.4974 0 0 0
609 34 3 0.046089 14.1066 13.5411 12.1448 0 0 0
610 34 3 0.033922 14.8911 16.2903 11.0201 0 0 0
611 34 3 0.033922 14.4159 15.769 12.6958 0 0 0
612 34 3 0.033922 15.9529 15.3276 12.0434 0 0 0
613 35 1 -0.091211 38.9044 16.9322 19.5127 -1 0 0
614 35 1 -0.050311 38.935 15.3782 19.7128 -1 0 0