ITEM: TIMESTEP
18800
ITEM: NUMBER OF ATOMS
1800
ITEM: BOX BOUNDS pp pp pp
-2.7609280813695847e-01 3.9084108308136663e+01
4.1485716387642313e-02 2.1567169783612599e+01
-2.3654384488279643e+00 2.3619171948828139e+01
ITEM: ATOMS id mol type q x y z ix iy iz
1 1 1 -0.091211 7.29969 17.2781 3.92464 0 -1 0
2 1 1 -0.050311 6.21778 17.4738 5.02212 0 -1 0
3 1 2 -0.174311 6.95497 18.1915 6.08998 0 -1 0
4 1 2 -0.174311 6.85147 19.4976 6.56613 0 -1 0
5 1 1 -0.050311 5.95629 20.5993 6.11157 0 -1 0
6 1 1 -0.091211 5.8894 0.120044 7.23268 0 0 0
7 1 3 0.033922 7.40637 18.2207 3.37988 0 -1 0
8 1 3 0.033922 7.00932 16.5067 3.20548 0 -1 0
9 1 3 0.033922 8.18664 16.7786 4.32523 0 -1 0
10 1 3 0.046089 5.41685 18.1309 4.67081 0 -1 0
11 1 3 0.046089 5.81888 16.5392 5.42695 0 -1 0
12 1 4 0.121889 7.63109 17.5462 6.64181 0 -1 0
13 1 4 0.121889 7.587 19.7397 7.32667 0 -1 0
14 1 3 0.046089 4.97198 20.1712 5.90056 0 -1 0
15 1 3 0.046089 6.31966 21.1567 5.24334 0 -1 0
16 1 3 0.033922 5.20409 0.90492 6.89961 0 0 0
17 1 3 0.033922 5.59818 21.3656 8.24921 0 -1 0
18 1 3 0.033922 6.85135 0.635457 7.30795 0 0 0
19 2 1 -0.091211 6.20605 1.86653 16.9058 0 0 0
20 2 1 -0.050311 5.65755 1.59628 18.2904 0 0 0
21 2 2 -0.174311 6.53355 2.11987 19.3932 0 0 0
22 2 2 -0.174311 6.55587 3.27255 20.0591 0 0 0
23 2 1 -0.050311 5.55761 4.35971 19.7105 0 0 0
24 2 1 -0.091211 4.90138 4.78194 21.0762 0 0 0
25 2 3 0.033922 7.16994 1.35865 16.8076 0 0 0
26 2 3 0.033922 6.27772 2.94293 16.7247 0 0 0
27 2 3 0.033922 5.56575 1.42708 16.1354 0 0 0
28 2 3 0.046089 4.68031 2.07722 18.3922 0 0 0
29 2 3 0.046089 5.47445 0.526963 18.4305 0 0 0
30 2 4 0.121889 7.20685 1.39389 19.8377 0 0 0
31 2 4 0.121889 7.15808 3.48907 20.9358 0 0 0
32 2 3 0.046089 4.7618 3.97541 19.0657 0 0 0
33 2 3 0.046089 6.02571 5.19569 19.1826 0 0 0
34 2 3 0.033922 5.64396 5.11772 21.8059 0 0 0
35 2 3 0.033922 4.13746 5.53292 20.8546 0 0 0
36 2 3 0.033922 4.38312 3.87505 21.4011 0 0 0
37 3 1 -0.091211 1.44318 5.77735 6.13332 0 0 0
38 3 1 -0.050311 1.37393 7.29433 5.98027 0 0 0
39 3 2 -0.174311 0.827684 8.03452 7.28644 0 0 0
40 3 2 -0.174311 1.40214 9.09449 7.97159 0 0 0
41 3 1 -0.050311 2.69743 9.74283 7.59872 0 0 0
42 3 1 -0.091211 3.79061 9.53752 8.61638 0 0 0
43 3 3 0.033922 2.21152 5.4945 6.85879 0 0 0
44 3 3 0.033922 1.63985 5.27023 5.18424 0 0 0
45 3 3 0.033922 0.508369 5.45554 6.60153 0 0 0
46 3 3 0.046089 2.32292 7.77098 5.71782 0 0 0
47 3 3 0.046089 0.689067 7.46605 5.14474 0 0 0
48 3 4 0.121889 -0.0257749 7.55107 7.75112 0 0 0
49 3 4 0.121889 0.913708 9.44222 8.87632 0 0 0
50 3 3 0.046089 2.40079 10.7937 7.53272 0 0 0
51 3 3 0.046089 3.06437 9.45834 6.60824 0 0 0
52 3 3 0.033922 4.72126 10.0005 8.27556 0 0 0
53 3 3 0.033922 3.45972 9.89922 9.59428 0 0 0
54 3 3 0.033922 3.90823 8.46077 8.76923 0 0 0
55 4 1 -0.091211 4.91213 5.51691 7.01647 0 0 0
56 4 1 -0.050311 4.83951 4.65883 5.734 0 0 0
57 4 2 -0.174311 5.32291 5.40412 4.50704 0 0 0
58 4 2 -0.174311 5.50033 4.85802 3.28202 0 0 0
59 4 1 -0.050311 5.34124 3.40428 2.8481 0 0 0
60 4 1 -0.091211 6.63387 2.81288 2.34969 0 0 0
61 4 3 0.033922 5.91873 5.68296 7.41126 0 0 0
62 4 3 0.033922 4.37535 4.8913 7.73556 0 0 0
63 4 3 0.033922 4.29396 6.41341 6.91273 0 0 0
64 4 3 0.046089 5.43546 3.76043 5.9193 0 0 0
65 4 3 0.046089 3.83808 4.29803 5.48178 0 0 0
66 4 4 0.121889 5.49779 6.47372 4.56481 0 0 0
67 4 4 0.121889 5.74507 5.69196 2.63192 0 0 0
68 4 3 0.046089 4.7438 3.46307 1.93364 0 0 0
69 4 3 0.046089 4.89006 2.75702 3.6058 0 0 0
70 4 3 0.033922 6.43644 1.84308 1.88376 0 0 0
71 4 3 0.033922 7.03159 3.47479 1.5749 0 0 0
72 4 3 0.033922 7.34233 2.63563 3.16413 0 0 0
73 5 1 -0.091211 37.2718 3.74935 9.21946 -1 0 0
74 5 1 -0.050311 35.9546 4.44465 9.26852 -1 0 0
75 5 2 -0.174311 34.8611 3.77902 8.46102 -1 0 0
76 5 2 -0.174311 34.4125 4.12252 7.17849 -1 0 0
77 5 1 -0.050311 34.7928 5.36413 6.52081 -1 0 0
78 5 1 -0.091211 34.0295 5.57113 5.20683 -1 0 0
79 5 3 0.033922 37.0826 2.7831 9.69605 -1 0 0
80 5 3 0.033922 37.9863 4.41109 9.71776 -1 0 0
81 5 3 0.033922 37.5449 3.61753 8.16843 -1 0 0
82 5 3 0.046089 35.5072 4.48443 10.266 -1 0 0
83 5 3 0.046089 36.0895 5.44308 8.84247 -1 0 0
84 5 4 0.121889 34.2905 2.92782 8.81857 -1 0 0
85 5 4 0.121889 33.7232 3.48932 6.62904 -1 0 0
86 5 3 0.046089 35.8526 5.30178 6.25675 -1 0 0
87 5 3 0.046089 34.658 6.22842 7.17764 -1 0 0
88 5 3 0.033922 34.7128 6.00354 4.47005 -1 0 0
89 5 3 0.033922 33.664 4.59122 4.88626 -1 0 0
90 5 3 0.033922 33.1356 6.17914 5.37398 -1 0 0
91 6 1 -0.091211 13.2764 10.3662 22.8715 0 0 0
92 6 1 -0.050311 12.2818 9.63599 21.9185 0 0 0
93 6 2 -0.174311 13.0105 9.15478 20.6564 0 0 0
94 6 2 -0.174311 12.3197 8.59641 19.6016 0 0 0
95 6 1 -0.050311 10.8983 8.31565 19.6884 0 0 0
96 6 1 -0.091211 10.5826 7.33967 18.5507 0 0 0
97 6 3 0.033922 14.0736 9.67809 23.1674 0 0 0
98 6 3 0.033922 12.805 10.6558 -2.16947 0 0 1
99 6 3 0.033922 13.6401 11.2196 22.2918 0 0 0
100 6 3 0.046089 11.8857 8.79164 22.4901 0 0 0
101 6 3 0.046089 11.436 10.2871 21.6791 0 0 0
102 6 4 0.121889 14.0336 9.45099 20.4472 0 0 0
103 6 4 0.121889 12.8864 8.46808 18.6849 0 0 0
104 6 3 0.046089 10.3807 9.2783 19.6441 0 0 0
105 6 3 0.046089 10.7314 7.87421 20.6752 0 0 0
106 6 3 0.033922 9.55007 6.9872 18.6299 0 0 0
107 6 3 0.033922 10.6652 7.91496 17.624 0 0 0
108 6 3 0.033922 11.3778 6.58869 18.5335 0 0 0
109 7 1 -0.091211 34.1226 15.987 9.22337 -1 0 0
110 7 1 -0.050311 34.7881 14.9869 8.26906 -1 0 0
111 7 2 -0.174311 36.0413 14.3569 8.73573 -1 0 0
112 7 2 -0.174311 37.1362 13.8683 8.03035 -1 0 0
113 7 1 -0.050311 37.2619 13.7806 6.51301 -1 0 0
114 7 1 -0.091211 37.5061 12.3984 6.05928 -1 0 0
115 7 3 0.033922 34.8021 16.8241 9.40859 -1 0 0
116 7 3 0.033922 33.8466 15.465 10.1441 -1 0 0
117 7 3 0.033922 33.2302 16.4008 8.7449 -1 0 0
118 7 3 0.046089 34.1168 14.1674 7.99652 -1 0 0
119 7 3 0.046089 34.9771 15.5702 7.36317 -1 0 0
120 7 4 0.121889 35.9734 14.3045 9.8177 -1 0 0
121 7 4 0.121889 38.0103 13.5011 8.5586 -1 0 0
122 7 3 0.046089 38.0955 14.3924 6.15597 -1 0 0
123 7 3 0.046089 36.2904 14.1822 6.21024 -1 0 0
124 7 3 0.033922 37.8528 12.4392 5.02258 -1 0 0
125 7 3 0.033922 38.2227 11.887 6.70859 -1 0 0
126 7 3 0.033922 36.5444 11.8807 5.99748 -1 0 0
127 8 1 -0.091211 37.0523 8.10594 13.3529 -1 0 0
128 8 1 -0.050311 38.2239 7.50922 12.5362 -1 0 0
129 8 2 -0.174311 38.3016 6.1012 13.0358 -1 0 0
130 8 2 -0.174311 0.0689358 5.74241 13.8194 0 0 0
131 8 1 -0.050311 1.26544 6.5855 14.1743 0 0 0
132 8 1 -0.091211 1.95812 5.87933 15.2991 0 0 0
133 8 3 0.033922 37.3065 8.40752 14.3732 -1 0 0
134 8 3 0.033922 36.242 7.37468 13.2797 -1 0 0
135 8 3 0.033922 36.7511 9.03208 12.8548 -1 0 0
136 8 3 0.046089 37.8945 7.51428 11.493 -1 0 0
137 8 3 0.046089 39.1404 8.10626 12.5218 -1 0 0
138 8 4 0.121889 37.558 5.34977 12.7901 -1 0 0
139 8 4 0.121889 -0.00245162 4.75218 14.2579 0 0 0
140 8 3 0.046089 0.892148 7.55204 14.5251 0 0 0
141 8 3 0.046089 1.88684 6.74705 13.2887 0 0 0
142 8 3 0.033922 2.81752 6.49521 15.5798 0 0 0
143 8 3 0.033922 1.26842 5.80836 16.1452 0 0 0
144 8 3 0.033922 2.36536 4.94052 14.9126 0 0 0
145 9 1 -0.091211 1.44212 3.85038 20.3775 0 0 0
146 9 1 -0.050311 0.550111 4.87985 19.6767 0 0 0
147 9 2 -0.174311 1.16869 6.26156 19.7572 0 0 0
148 9 2 -0.174311 0.658436 7.3482 19.0876 0 0 0
149 9 1 -0.050311 38.8021 7.21985 18.17 -1 0 0
150 9 1 -0.091211 38.5558 8.64257 17.5906 -1 0 0
151 9 3 0.033922 2.27716 3.61274 19.712 0 0 0
152 9 3 0.033922 1.00573 2.84731 20.3764 0 0 0
153 9 3 0.033922 1.71743 4.15353 21.3919 0 0 0
154 9 3 0.046089 0.369402 4.51222 18.6624 0 0 0
155 9 3 0.046089 38.963 4.89053 20.2236 -1 0 0
156 9 4 0.121889 2.10939 6.39398 20.2822 0 0 0
157 9 4 0.121889 1.34009 8.18936 19.0115 0 0 0
158 9 3 0.046089 37.9982 6.78311 18.7697 -1 0 0
159 9 3 0.046089 39.0073 6.60456 17.2892 -1 0 0
160 9 3 0.033922 38.4241 9.378 18.3896 -1 0 0
161 9 3 0.033922 -0.0816244 9.04172 16.873 0 0 0
162 9 3 0.033922 37.6286 8.63715 17.0102 -1 0 0
163 10 1 -0.091211 5.95689 10.3994 4.33076 0 0 1
164 10 1 -0.050311 6.02254 9.75314 2.93074 0 0 1
165 10 2 -0.174311 4.91439 8.82811 2.87447 0 0 1
166 10 2 -0.174311 4.4147 8.31803 1.72007 0 0 1
167 10 1 -0.050311 5.03211 8.41182 0.317869 0 0 1
168 10 1 -0.091211 5.36204 7.02027 -0.20097 0 0 1
169 10 3 0.033922 5.03351 10.973 4.45326 0 0 1
170 10 3 0.033922 6.861 11.0003 4.4654 0 0 1
171 10 3 0.033922 6.00766 9.56739 5.03909 0 0 1
172 10 3 0.046089 5.88893 10.4936 2.13676 0 0 1
173 10 3 0.046089 6.93632 9.19762 2.70043 0 0 1
174 10 4 0.121889 4.28733 8.75899 3.75767 0 0 1
175 10 4 0.121889 3.51987 7.70673 1.65986 0 0 1
176 10 3 0.046089 5.95561 8.99521 0.376834 0 0 1
177 10 3 0.046089 4.30967 8.88618 -0.352725 0 0 1
178 10 3 0.033922 4.44077 6.43059 -0.214951 0 0 1
179 10 3 0.033922 5.63381 7.04825 -1.2602 0 0 1
180 10 3 0.033922 6.18523 6.51928 0.316734 0 0 1
181 11 1 -0.091211 0.495759 11.8157 -0.683885 0 0 0
182 11 1 -0.050311 0.0935682 10.5398 0.0971646 0 0 0
183 11 2 -0.174311 37.995 10.2433 -0.0434557 -1 0 0
184 11 2 -0.174311 37.1515 9.61146 0.89321 -1 0 0
185 11 1 -0.050311 37.7205 9.0493 2.18589 -1 0 0
186 11 1 -0.091211 36.8467 7.94331 2.80218 -1 0 0
187 11 3 0.033922 -0.0681214 11.7292 -1.61726 0 0 0
188 11 3 0.033922 1.56859 11.7718 -0.893176 0 0 0
189 11 3 0.033922 0.255565 12.7377 -0.146548 0 0 0
190 11 3 0.046089 0.714732 9.7252 -0.286506 0 0 0
191 11 3 0.046089 0.224316 10.6078 1.18109 0 0 0
192 11 4 0.121889 37.4535 10.784 -0.813132 -1 0 0
193 11 4 0.121889 36.1136 9.61644 0.576005 -1 0 0
194 11 3 0.046089 37.71 9.9295 2.8353 -1 0 0
195 11 3 0.046089 38.747 8.70039 2.0405 -1 0 0
196 11 3 0.033922 37.2723 7.43741 3.67367 -1 0 0
197 11 3 0.033922 35.9651 8.49786 3.13675 -1 0 0
198 11 3 0.033922 36.5366 7.22727 2.03552 -1 0 0
199 12 1 -0.091211 2.30828 11.2253 3.40374 0 0 0
200 12 1 -0.050311 2.71331 12.6999 3.31553 0 0 0
201 12 2 -0.174311 1.59941 13.5759 2.93529 0 0 0
202 12 2 -0.174311 1.46653 14.925 3.22507 0 0 0
203 12 1 -0.050311 2.36639 15.8766 4.00478 0 0 0
204 12 1 -0.091211 2.77062 17.073 3.18689 0 0 0
205 12 3 0.033922 2.68974 10.6724 2.54037 0 0 0
206 12 3 0.033922 1.24284 11.003 3.51378 0 0 0
207 12 3 0.033922 2.76793 10.7901 4.2959 0 0 0
208 12 3 0.046089 3.3007 12.9922 4.19083 0 0 0
209 12 3 0.046089 3.4213 12.6743 2.48202 0 0 0
210 12 4 0.121889 0.729952 13.197 2.40757 0 0 0
211 12 4 0.121889 0.626468 15.5166 2.8754 0 0 0
212 12 3 0.046089 3.23528 15.3561 4.41802 0 0 0
213 12 3 0.046089 1.75385 16.2541 4.82874 0 0 0
214 12 3 0.033922 3.38039 16.7599 2.33437 0 0 0
215 12 3 0.033922 1.87763 17.5605 2.78494 0 0 0
216 12 3 0.033922 3.39327 17.7276 3.80367 0 0 0
217 13 1 -0.091211 6.74158 12.4062 7.96394 0 0 0
218 13 1 -0.050311 5.3041 12.9222 7.71696 0 0 0
219 13 2 -0.174311 5.36892 14.4205 7.82756 0 0 0
220 13 2 -0.174311 4.23713 15.2562 8.01772 0 0 0
221 13 1 -0.050311 2.85833 14.7585 8.49486 0 0 0
222 13 1 -0.091211 1.78742 14.8585 7.50803 0 0 0
223 13 3 0.033922 7.29543 12.7481 7.08474 0 0 0
224 13 3 0.033922 6.76437 11.3126 7.96921 0 0 0
225 13 3 0.033922 7.16168 12.7829 8.90107 0 0 0
226 13 3 0.046089 4.92908 12.7566 6.70277 0 0 0
227 13 3 0.046089 4.73074 12.4941 8.54437 0 0 0
228 13 4 0.121889 6.29556 14.8647 7.47827 0 0 0
229 13 4 0.121889 4.22972 16.3266 7.83837 0 0 0
230 13 3 0.046089 2.65987 15.4537 9.31576 0 0 0
231 13 3 0.046089 2.99213 13.7599 8.92077 0 0 0
232 13 3 0.033922 1.75879 15.8723 7.09812 0 0 0
233 13 3 0.033922 1.86833 14.0802 6.74359 0 0 0
234 13 3 0.033922 0.841125 14.6394 8.01122 0 0 0
235 14 1 -0.091211 13.648 11.5909 14.6852 0 0 0
236 14 1 -0.050311 12.459 10.6576 14.9197 0 0 0
237 14 2 -0.174311 12.2384 9.70894 13.7351 0 0 0
238 14 2 -0.174311 10.9909 9.09002 13.4904 0 0 0
239 14 1 -0.050311 9.6257 9.25855 14.1958 0 0 0
240 14 1 -0.091211 8.87645 7.89044 14.3495 0 0 0
241 14 3 0.033922 13.613 12.0412 13.6888 0 0 0
242 14 3 0.033922 14.587 11.0298 14.6944 0 0 0
243 14 3 0.033922 13.6547 12.3911 15.431 0 0 0
244 14 3 0.046089 12.5915 10.0896 15.8451 0 0 0
245 14 3 0.046089 11.6286 11.36 15.0371 0 0 0
246 14 4 0.121889 12.9674 9.61046 12.9371 0 0 0
247 14 4 0.121889 10.9465 8.45541 12.611 0 0 0
248 14 3 0.046089 9.02248 9.94838 13.5984 0 0 0
249 14 3 0.046089 9.7306 9.59595 15.2311 0 0 0
250 14 3 0.033922 7.87868 8.00994 14.7818 0 0 0
251 14 3 0.033922 8.88737 7.28965 13.4355 0 0 0
252 14 3 0.033922 9.34861 7.27495 15.1208 0 0 0
253 15 1 -0.091211 6.45986 15.8598 16.2638 0 0 0
254 15 1 -0.050311 5.94935 15.9534 17.7241 0 0 0
255 15 2 -0.174311 7.03198 16.3644 18.6119 0 0 0
256 15 2 -0.174311 6.85218 16.7828 19.9131 0 0 0
257 15 1 -0.050311 5.45203 17.0711 20.4323 0 0 0
258 15 1 -0.091211 5.6525 17.3711 21.9327 0 0 0
259 15 3 0.033922 6.82633 16.8364 15.9345 0 0 0
260 15 3 0.033922 5.68863 15.5405 15.5568 0 0 0
261 15 3 0.033922 7.29005 15.1479 16.2386 0 0 0
262 15 3 0.046089 5.10002 16.6395 17.7912 0 0 0
263 15 3 0.046089 5.61477 14.9526 18.0123 0 0 0
264 15 4 0.121889 8.05791 16.2186 18.289 0 0 0
265 15 4 0.121889 7.74681 16.8251 20.5262 0 0 0
266 15 3 0.046089 4.80335 16.2074 20.2595 0 0 0
267 15 3 0.046089 4.92024 17.9366 20.0264 0 0 0
268 15 3 0.033922 5.98491 16.4947 22.4966 0 0 0
269 15 3 0.033922 6.41761 18.1484 22.0169 0 0 0
270 15 3 0.033922 4.66096 17.6732 22.2824 0 0 0
271 16 1 -0.091211 10.7138 18.3193 4.8935 0 0 0
272 16 1 -0.050311 10.7631 19.7755 5.37167 0 0 0
273 16 2 -0.174311 11.8017 20.4906 4.41802 0 0 0
274 16 2 -0.174311 11.5099 21.2235 3.28217 0 0 0
275 16 1 -0.050311 10.1126 21.2472 2.6941 0 0 0
276 16 1 -0.091211 9.99894 0.698626 1.48069 0 1 0
277 16 3 0.033922 10.1379 18.1714 3.97531 0 0 0
278 16 3 0.033922 10.2632 17.7351 5.70116 0 0 0
279 16 3 0.033922 11.6976 17.879 4.70681 0 0 0
280 16 3 0.046089 9.77965 20.2198 5.19273 0 0 0
281 16 3 0.046089 11.0601 19.9232 6.41407 0 0 0
282 16 4 0.121889 12.8136 20.5199 4.80958 0 0 0
283 16 4 0.121889 12.2468 0.217293 2.67802 0 1 0
284 16 3 0.046089 9.35818 21.5329 3.43292 0 0 0
285 16 3 0.046089 9.93483 20.2417 2.30159 0 0 0
286 16 3 0.033922 9.00223 0.589366 1.04331 0 1 0
287 16 3 0.033922 10.2356 1.7089 1.82703 0 1 0
288 16 3 0.033922 10.7709 0.454942 0.744875 0 1 0
289 17 1 -0.091211 9.53593 16.5895 9.33953 0 0 0
290 17 1 -0.050311 8.29707 16.5575 10.2821 0 0 0
291 17 2 -0.174311 7.1243 17.2074 9.58332 0 0 0
292 17 2 -0.174311 6.42408 18.2967 10.057 0 0 0
293 17 1 -0.050311 6.63829 19.1648 11.3506 0 0 0
294 17 1 -0.091211 5.76869 18.8123 12.5569 0 0 0
295 17 3 0.033922 9.34352 16.2406 8.32078 0 0 0
296 17 3 0.033922 10.3972 16.0713 9.77113 0 0 0
297 17 3 0.033922 9.87191 17.6198 9.19069 0 0 0
298 17 3 0.046089 8.07919 15.5218 10.5589 0 0 0
299 17 3 0.046089 8.58666 17.0051 11.2372 0 0 0
300 17 4 0.121889 6.77144 16.7113 8.68477 0 0 0
301 17 4 0.121889 5.58618 18.5838 9.42967 0 0 0
302 17 3 0.046089 6.4999 20.2265 11.1266 0 0 0
303 17 3 0.046089 7.68311 19.0591 11.657 0 0 0
304 17 3 0.033922 5.8247 19.525 13.3848 0 0 0
305 17 3 0.033922 4.78273 19.0188 12.1303 0 0 0
306 17 3 0.033922 5.98498 17.7749 12.828 0 0 0
307 18 1 -0.091211 6.5549 18.1266 -0.71879 0 0 1
308 18 1 -0.050311 5.38861 18.5774 0.205297 0 0 1
309 18 2 -0.174311 5.80135 19.4747 1.37063 0 0 1
310 18 2 -0.174311 4.91073 20.3056 2.02809 0 0 1
311 18 1 -0.050311 3.39734 20.3651 1.80204 0 0 1
312 18 1 -0.091211 2.99293 0.22663 1.54525 0 1 1
313 18 3 0.033922 7.25057 17.5916 -0.0657271 0 0 1
314 18 3 0.033922 7.02314 18.944 -1.27487 0 0 1
315 18 3 0.033922 6.28697 17.3424 -1.43283 0 0 1
316 18 3 0.046089 4.66331 19.0658 -0.451976 0 0 1
317 18 3 0.046089 4.92678 17.7111 0.688008 0 0 1
318 18 4 0.121889 6.80701 19.4252 1.77594 0 0 1
319 18 4 0.121889 5.23006 20.8263 2.92521 0 0 1
320 18 3 0.046089 2.81757 19.9853 2.64834 0 0 1
321 18 3 0.046089 3.14241 19.6768 0.990938 0 0 1
322 18 3 0.033922 1.92304 0.151991 1.32977 0 1 1
323 18 3 0.033922 3.11208 0.867465 2.42373 0 1 1
324 18 3 0.033922 3.49158 0.625533 0.657078 0 1 1
325 19 1 -0.091211 16.4972 1.63889 23.5051 0 0 -1
326 19 1 -0.050311 16.6326 2.55688 22.3121 0 0 -1
327 19 2 -0.174311 15.3051 2.9082 21.6332 0 0 -1
328 19 2 -0.174311 14.5093 3.99 21.9338 0 0 -1
329 19 1 -0.050311 14.9054 5.11886 22.8591 0 0 -1
330 19 1 -0.091211 14.633 6.41791 22.2201 0 0 -1
331 19 3 0.033922 15.7146 2.04597 -1.83274 0 0 0
332 19 3 0.033922 17.4111 1.52534 -1.88905 0 0 0
333 19 3 0.033922 16.3403 0.639425 23.0891 0 0 -1
334 19 3 0.046089 17.2568 3.42124 22.5567 0 0 -1
335 19 3 0.046089 17.1833 1.98642 21.5585 0 0 -1
336 19 4 0.121889 14.923 2.14146 20.9668 0 0 -1
337 19 4 0.121889 13.4865 3.97456 21.5709 0 0 -1
338 19 3 0.046089 15.9438 5.10115 23.2028 0 0 -1
339 19 3 0.046089 14.32 4.9739 -2.21297 0 0 0
340 19 3 0.033922 13.6254 6.45515 21.7958 0 0 -1
341 19 3 0.033922 14.8468 7.23725 22.9126 0 0 -1
342 19 3 0.033922 15.3361 6.48678 21.385 0 0 -1
343 20 1 -0.091211 10.1128 4.05994 5.8585 0 0 0
344 20 1 -0.050311 9.74707 2.5782 5.96431 0 0 0
345 20 2 -0.174311 10.8284 1.76543 6.56122 0 0 0
346 20 2 -0.174311 10.7952 1.14801 7.78714 0 0 0
347 20 1 -0.050311 9.59037 1.08537 8.65097 0 0 0
348 20 1 -0.091211 9.90044 0.531303 10.046 0 0 0
349 20 3 0.033922 10.0031 4.48806 6.85915 0 0 0
350 20 3 0.033922 9.37682 4.49897 5.1786 0 0 0
351 20 3 0.033922 11.1326 4.21742 5.49532 0 0 0
352 20 3 0.046089 8.82306 2.53623 6.54836 0 0 0
353 20 3 0.046089 9.51298 2.22389 4.95621 0 0 0
354 20 4 0.121889 11.7559 1.77413 5.99755 0 0 0
355 20 4 0.121889 11.724 0.688914 8.11058 0 0 0
356 20 3 0.046089 8.86951 0.395448 8.20265 0 0 0
357 20 3 0.046089 9.11811 2.06562 8.76359 0 0 0
358 20 3 0.033922 9.05422 0.115714 10.6008 0 0 0
359 20 3 0.033922 10.6246 21.2384 10.0935 0 -1 0
360 20 3 0.033922 10.3614 1.38818 10.5459 0 0 0
361 21 1 -0.091211 1.2784 21.2358 -2.33262 0 -1 1
362 21 1 -0.050311 1.82807 20.5649 22.3726 0 -1 0
363 21 2 -0.174311 2.46836 0.131849 21.4589 0 0 0
364 21 2 -0.174311 2.66562 21.4927 20.1506 0 -1 0
365 21 1 -0.050311 2.28357 20.2924 19.401 0 -1 0
366 21 1 -0.091211 3.34246 20.0771 18.3105 0 -1 0
367 21 3 0.033922 2.01941 21.1731 -1.53036 0 -1 1
368 21 3 0.033922 0.403449 20.7453 -1.89614 0 -1 1
369 21 3 0.033922 0.918216 0.730883 23.494 0 0 0
370 21 3 0.046089 2.56998 19.8457 22.7317 0 -1 0
371 21 3 0.046089 1.00597 20.0333 21.8845 0 -1 0
372 21 4 0.121889 2.76355 1.10225 21.8451 0 0 0
373 21 4 0.121889 3.12321 0.808199 19.6397 0 0 0
374 21 3 0.046089 1.25721 20.3825 19.0334 0 -1 0
375 21 3 0.046089 2.27541 19.4173 20.0573 0 -1 0
376 21 3 0.033922 3.02982 19.2281 17.6955 0 -1 0
377 21 3 0.033922 3.41357 20.9975 17.7236 0 -1 0
378 21 3 0.033922 4.37025 19.9774 18.6715 0 -1 0
379 22 1 -0.091211 9.99161 19.1024 19.419 0 -1 0
380 22 1 -0.050311 10.8265 20.3424 19.1926 0 -1 0
381 22 2 -0.174311 9.93889 21.5024 18.7977 0 -1 0
382 22 2 -0.174311 9.91735 1.23132 19.3039 0 0 0
383 22 1 -0.050311 10.7851 1.71542 20.3776 0 0 0
384 22 1 -0.091211 10.6084 3.24248 20.5928 0 0 0
385 22 3 0.033922 9.49911 19.1977 20.3911 0 -1 0
386 22 3 0.033922 10.6009 18.1978 19.3351 0 -1 0
387 22 3 0.033922 9.17545 19.0346 18.6938 0 -1 0
388 22 3 0.046089 11.3548 20.5385 20.1301 0 -1 0
389 22 3 0.046089 11.493 20.0543 18.3743 0 -1 0
390 22 4 0.121889 9.16611 21.2438 18.0808 0 -1 0
391 22 4 0.121889 9.14337 1.8859 18.916 0 0 0
392 22 3 0.046089 11.8457 1.51126 20.2039 0 0 0
393 22 3 0.046089 10.6195 1.2426 21.35 0 0 0
394 22 3 0.033922 10.1393 3.44726 21.5596 0 0 0
395 22 3 0.033922 11.565 3.76777 20.5186 0 0 0
396 22 3 0.033922 9.96601 3.6775 19.8216 0 0 0
397 23 1 -0.091211 13.2189 8.61512 0.441755 0 0 0
398 23 1 -0.050311 11.7914 8.28399 0.943954 0 0 0
399 23 2 -0.174311 11.7195 6.92483 1.57955 0 0 0
400 23 2 -0.174311 10.6636 6.56979 2.41256 0 0 0
401 23 1 -0.050311 9.49307 7.39258 2.7833 0 0 0
402 23 1 -0.091211 9.58514 7.784 4.27171 0 0 0
403 23 3 0.033922 13.1126 9.56802 -0.0848054 0 0 0
404 23 3 0.033922 13.5771 7.92091 -0.323974 0 0 0
405 23 3 0.033922 13.8203 8.70388 1.35121 0 0 0
406 23 3 0.046089 11.4741 9.11508 1.58051 0 0 0
407 23 3 0.046089 11.1114 8.41017 0.0964062 0 0 0
408 23 4 0.121889 12.554 6.25447 1.39982 0 0 0
409 23 4 0.121889 10.5539 5.65075 2.9794 0 0 0
410 23 3 0.046089 8.61523 6.77161 2.58222 0 0 0
411 23 3 0.046089 9.45799 8.2854 2.15224 0 0 0
412 23 3 0.033922 9.3891 6.86459 4.83103 0 0 0
413 23 3 0.033922 10.6089 8.07961 4.51912 0 0 0
414 23 3 0.033922 8.92927 8.59073 4.61175 0 0 0
415 24 1 -0.091211 5.49437 12.9511 -0.424334 0 0 0
416 24 1 -0.050311 6.63277 14.0454 -0.481228 0 0 0
417 24 2 -0.174311 7.03979 14.4442 0.935158 0 0 0
418 24 2 -0.174311 8.06408 14.0196 1.73487 0 0 0
419 24 1 -0.050311 9.05993 13.0229 1.20881 0 0 0
420 24 1 -0.091211 9.52291 12.1402 2.36107 0 0 0
421 24 3 0.033922 5.87637 12.139 0.201048 0 0 0
422 24 3 0.033922 5.39385 12.476 -1.40455 0 0 0
423 24 3 0.033922 4.55522 13.2502 0.050213 0 0 0
424 24 3 0.046089 7.54114 13.68 -0.96909 0 0 0
425 24 3 0.046089 6.31366 14.9037 -1.07961 0 0 0
426 24 4 0.121889 6.395 15.167 1.42484 0 0 0
427 24 4 0.121889 8.21734 14.4653 2.71252 0 0 0
428 24 3 0.046089 9.90926 13.566 0.784122 0 0 0
429 24 3 0.046089 8.5873 12.4102 0.435614 0 0 0
430 24 3 0.033922 10.504 11.7232 2.11574 0 0 0
431 24 3 0.033922 9.66344 12.7782 3.2385 0 0 0
432 24 3 0.033922 8.89401 11.2761 2.59433 0 0 0
433 25 1 -0.091211 5.14353 4.99682 12.3803 0 0 0
434 25 1 -0.050311 4.20845 3.86635 12.3659 0 0 0
435 25 2 -0.174311 3.09465 4.16099 11.3383 0 0 0
436 25 2 -0.174311 2.62982 3.1878 10.4416 0 0 0
437 25 1 -0.050311 3.14977 1.80431 10.2481 0 0 0
438 25 1 -0.091211 2.17878 1.03522 9.3899 0 0 0
439 25 3 0.033922 5.70519 5.0239 11.442 0 0 0
440 25 3 0.033922 5.86685 4.8056 13.1784 0 0 0
441 25 3 0.033922 4.47689 5.8439 12.5665 0 0 0
442 25 3 0.046089 4.80183 2.96418 12.1909 0 0 0
443 25 3 0.046089 3.61329 3.67034 13.2626 0 0 0
444 25 4 0.121889 2.6729 5.16056 11.3069 0 0 0
445 25 4 0.121889 1.81712 3.50827 9.79751 0 0 0
446 25 3 0.046089 3.18795 1.24368 11.1866 0 0 0
447 25 3 0.046089 4.13373 1.94067 9.78996 0 0 0
448 25 3 0.033922 2.13258 1.48243 8.39266 0 0 0
449 25 3 0.033922 2.54615 21.537 9.2751 0 -1 0
450 25 3 0.033922 1.16323 1.03423 9.79651 0 0 0
451 26 1 -0.091211 2.1491 20.1742 12.731 0 -1 0
452 26 1 -0.050311 1.99915 20.8039 14.07 0 -1 0
453 26 2 -0.174311 1.95244 0.794769 13.8485 0 0 0
454 26 2 -0.174311 1.23828 1.73521 14.5665 0 0 0
455 26 1 -0.050311 0.475773 1.40984 15.8217 0 0 0
456 26 1 -0.091211 1.21177 1.90115 17.0306 0 0 0
457 26 3 0.033922 1.28392 20.3186 12.0773 0 -1 0
458 26 3 0.033922 2.19242 19.0904 12.8725 0 -1 0
459 26 3 0.033922 3.06272 20.5562 12.2662 0 -1 0
460 26 3 0.046089 1.02187 20.4955 14.4527 0 -1 0
461 26 3 0.046089 2.85963 20.5693 14.7033 0 -1 0
462 26 4 0.121889 2.50599 1.06384 12.9545 0 0 0
463 26 4 0.121889 1.23721 2.76271 14.217 0 0 0
464 26 3 0.046089 0.23117 0.344409 15.8618 0 0 0
465 26 3 0.046089 38.8357 1.85117 15.8597 -1 0 0
466 26 3 0.033922 0.701218 1.45108 17.887 0 0 0
467 26 3 0.033922 2.26226 1.59602 17.0367 0 0 0
468 26 3 0.033922 1.28489 2.99237 17.0523 0 0 0
469 27 1 -0.091211 19.5493 11.0586 14.3486 0 0 0
470 27 1 -0.050311 18.9569 11.1633 12.9468 0 0 0
471 27 2 -0.174311 19.941 11.7042 11.8529 0 0 0
472 27 2 -0.174311 19.5199 12.7463 10.9972 0 0 0
473 27 1 -0.050311 18.3279 13.5706 11.1232 0 0 0
474 27 1 -0.091211 18.3811 14.7053 10.2198 0 0 0
475 27 3 0.033922 18.7412 10.834 15.0509 0 0 0
476 27 3 0.033922 20.0414 11.9828 14.6654 0 0 0
477 27 3 0.033922 20.2141 10.198 14.4668 0 0 0
478 27 3 0.046089 18.6437 10.1535 12.6661 0 0 0
479 27 3 0.046089 18.0768 11.7908 13.115 0 0 0
480 27 4 0.121889 20.9007 11.1972 11.8514 0 0 0
481 27 4 0.121889 20.2474 12.9145 10.2095 0 0 0
482 27 3 0.046089 18.1356 13.8551 12.1618 0 0 0
483 27 3 0.046089 17.5297 12.9201 10.7538 0 0 0
484 27 3 0.033922 18.5455 14.3733 9.19058 0 0 0
485 27 3 0.033922 17.4117 15.212 10.228 0 0 0
486 27 3 0.033922 19.1042 15.456 10.552 0 0 0
487 28 1 -0.091211 9.02095 4.7669 -1.74783 0 0 0
488 28 1 -0.050311 7.85546 3.84244 -2.0378 0 0 0
489 28 2 -0.174311 8.33917 2.43885 23.5561 0 0 -1
490 28 2 -0.174311 7.44664 1.38566 23.4588 0 0 -1
491 28 1 -0.050311 5.89128 1.53841 -2.27993 0 0 0
492 28 1 -0.091211 5.18724 0.25699 23.4162 0 0 -1
493 28 3 0.033922 8.64868 5.73705 -1.40603 0 0 0
494 28 3 0.033922 9.57798 5.07251 23.3463 0 0 -1
495 28 3 0.033922 9.60109 4.33195 -0.928762 0 0 0
496 28 3 0.046089 7.38101 3.65385 -1.07035 0 0 0
497 28 3 0.046089 7.06681 4.33356 23.3693 0 0 -1
498 28 4 0.121889 9.41436 2.2904 23.5589 0 0 -1
499 28 4 0.121889 7.94241 0.456286 23.1971 0 0 -1
500 28 3 0.046089 5.47859 2.28184 23.0165 0 0 -1
501 28 3 0.046089 5.648 1.85296 -1.26087 0 0 0
502 28 3 0.033922 4.15246 0.268971 -2.21381 0 0 0
503 28 3 0.033922 5.17338 -0.00447133 22.3541 0 0 -1
504 28 3 0.033922 5.67408 20.8953 -2.1536 0 -1 0
505 29 1 -0.091211 9.52942 4.8055 10.7633 0 0 0
506 29 1 -0.050311 9.64372 6.32879 10.534 0 0 0
507 29 2 -0.174311 8.2807 7.03256 10.8231 0 0 0
508 29 2 -0.174311 7.73151 8.1485 10.2136 0 0 0
509 29 1 -0.050311 8.46401 9.01502 9.23828 0 0 0
510 29 1 -0.091211 8.11829 8.72733 7.76944 0 0 0
511 29 3 0.033922 8.69067 4.50824 10.1271 0 0 0
512 29 3 0.033922 9.30849 4.52418 11.7971 0 0 0
513 29 3 0.033922 10.4171 4.27713 10.4034 0 0 0
514 29 3 0.046089 10.4517 6.74076 11.1457 0 0 0
515 29 3 0.046089 9.90385 6.44618 9.478 0 0 0
516 29 4 0.121889 7.63614 6.54144 11.5451 0 0 0
517 29 4 0.121889 6.78818 8.52105 10.6002 0 0 0
518 29 3 0.046089 9.54328 9.00443 9.41646 0 0 0
519 29 3 0.046089 8.16854 10.0375 9.49079 0 0 0
520 29 3 0.033922 7.06826 8.89872 7.515 0 0 0
521 29 3 0.033922 8.54187 9.5544 7.19226 0 0 0
522 29 3 0.033922 8.40228 7.72191 7.44531 0 0 0
523 30 1 -0.091211 16.3082 12.6264 17.8962 0 0 0
524 30 1 -0.050311 15.2626 11.8615 18.7444 0 0 0
525 30 2 -0.174311 14.6615 12.6648 19.8408 0 0 0
526 30 2 -0.174311 13.3585 13.1496 19.7807 0 0 0
527 30 1 -0.050311 12.5132 12.9969 18.565 0 0 0
528 30 1 -0.091211 11.4209 14.0455 18.4344 0 0 0
529 30 3 0.033922 15.7862 13.3497 17.263 0 0 0
530 30 3 0.033922 16.9311 11.9517 17.3017 0 0 0
531 30 3 0.033922 16.9756 13.2448 18.5036 0 0 0
532 30 3 0.046089 14.4891 11.4483 18.0906 0 0 0
533 30 3 0.046089 15.7583 11.0216 19.2399 0 0 0
534 30 4 0.121889 15.2188 12.8198 20.7592 0 0 0
535 30 4 0.121889 12.8688 13.6161 20.6296 0 0 0
536 30 3 0.046089 12.0241 12.0214 18.4895 0 0 0
537 30 3 0.046089 13.037 13.1562 17.618 0 0 0
538 30 3 0.033922 11.8456 15.0454 18.3063 0 0 0
539 30 3 0.033922 10.7094 13.7827 17.6461 0 0 0
540 30 3 0.033922 10.7588 13.9952 19.3038 0 0 0
541 31 1 -0.091211 20.4851 3.87274 14.0783 0 1 0
542 31 1 -0.050311 20.0276 2.48577 14.454 0 1 0
543 31 2 -0.174311 21.1108 1.80141 15.2421 0 1 0
544 31 2 -0.174311 21.6095 0.455663 15.1835 0 1 0
545 31 1 -0.050311 21.0738 20.8742 14.3099 0 0 0
546 31 1 -0.091211 22.2629 20.0203 13.9264 0 0 0
547 31 3 0.033922 21.5206 3.84317 13.7268 0 1 0
548 31 3 0.033922 20.4297 4.44709 15.0076 0 1 0
549 31 3 0.033922 19.798 4.37645 13.3921 0 1 0
550 31 3 0.046089 19.1471 2.50688 15.1028 0 1 0
551 31 3 0.046089 19.7842 1.87892 13.577 0 1 0
552 31 4 0.121889 21.6829 2.42271 15.9238 0 1 0
553 31 4 0.121889 22.5467 0.254395 15.6927 0 1 0
554 31 3 0.046089 20.5121 21.3031 13.4749 0 0 0
555 31 3 0.046089 20.3333 20.2188 14.7776 0 0 0
556 31 3 0.033922 23.015 20.7199 13.5503 0 0 0
557 31 3 0.033922 22.7447 19.5117 14.7665 0 0 0
558 31 3 0.033922 22.0878 19.3077 13.1151 0 0 0
559 32 1 -0.091211 18.1251 17.4776 8.57575 0 0 0
560 32 1 -0.050311 17.5782 18.7685 7.94931 0 0 0
561 32 2 -0.174311 17.5275 18.6627 6.4588 0 0 0
562 32 2 -0.174311 16.5442 19.3003 5.71866 0 0 0
563 32 1 -0.050311 15.4239 20.1449 6.33414 0 0 0
564 32 1 -0.091211 15.7772 0.0879267 6.25417 0 1 0
565 32 3 0.033922 19.1138 17.1606 8.23123 0 0 0
566 32 3 0.033922 17.4187 16.6688 8.3676 0 0 0
567 32 3 0.033922 18.112 17.5907 9.66371 0 0 0
568 32 3 0.046089 16.5887 18.8559 8.40749 0 0 0
569 32 3 0.046089 18.1651 19.6433 8.24425 0 0 0
570 32 4 0.121889 18.304 18.1146 5.93467 0 0 0
571 32 4 0.121889 16.4161 19.1854 4.64704 0 0 0
572 32 3 0.046089 15.178 19.9338 7.37892 0 0 0
573 32 3 0.046089 14.5013 19.9591 5.77654 0 0 0
574 32 3 0.033922 14.9739 0.793615 6.48505 0 1 0
575 32 3 0.033922 16.6157 0.342902 6.90883 0 1 0
576 32 3 0.033922 16.1378 0.297758 5.24296 0 1 0
577 33 1 -0.091211 12.7276 15.3339 6.63253 0 0 0
578 33 1 -0.050311 13.6274 16.5883 6.8086 0 0 0
579 33 2 -0.174311 14.5831 16.369 7.95359 0 0 0
580 33 2 -0.174311 14.5003 16.9222 9.22336 0 0 0
581 33 1 -0.050311 13.378 17.8732 9.72549 0 0 0
582 33 1 -0.091211 13.1802 17.5085 11.2007 0 0 0
583 33 3 0.033922 12.2082 15.2117 7.58744 0 0 0
584 33 3 0.033922 13.2606 14.3899 6.486 0 0 0
585 33 3 0.033922 12.0687 15.4578 5.76818 0 0 0
586 33 3 0.046089 14.176 16.7272 5.87243 0 0 0
587 33 3 0.046089 13.0019 17.4544 7.04371 0 0 0
588 33 4 0.121889 15.3656 15.6216 7.86905 0 0 0
589 33 4 0.121889 15.2928 16.7815 9.95148 0 0 0
590 33 3 0.046089 12.4428 17.8627 9.15811 0 0 0
591 33 3 0.046089 13.7188 18.9113 9.67248 0 0 0
592 33 3 0.033922 14.1259 17.4378 11.746 0 0 0
593 33 3 0.033922 12.5825 18.2522 11.7357 0 0 0
594 33 3 0.033922 12.835 16.4715 11.2479 0 0 0
595 34 1 -0.091211 20.8939 16.4883 13.7199 0 0 0
596 34 1 -0.050311 21.2954 15.4576 14.7026 0 0 0
597 34 2 -0.174311 22.3616 14.578 14.1777 0 0 0
598 34 2 -0.174311 23.4328 14.1657 14.9427 0 0 0
599 34 1 -0.050311 23.8078 14.7394 16.2717 0 0 0
600 34 1 -0.091211 24.4031 16.1913 16.2457 0 0 0
601 34 3 0.033922 21.7641 17.1035 13.473 0 0 0
602 34 3 0.033922 20.0787 17.1241 14.0772 0 0 0
603 34 3 0.033922 20.5883 15.924 12.834 0 0 0
604 34 3 0.046089 21.5796 15.8292 15.6914 0 0 0
605 34 3 0.046089 20.4277 14.8376 14.9464 0 0 0
606 34 4 0.121889 22.1703 13.8984 13.3533 0 0 0
607 34 4 0.121889 24.1713 13.4229 14.6583 0 0 0
608 34 3 0.046089 24.5955 14.1107 16.6972 0 0 0
609 34 3 0.046089 22.9519 14.6639 16.9488 0 0 0
610 34 3 0.033922 23.5661 16.8539 16.0071 0 0 0
611 34 3 0.033922 24.8906 16.3213 17.2163 0 0 0
612 34 3 0.033922 25.1853 16.2331 15.4821 0 0 0
613 35 1 -0.091211 7.37785 8.96462 23.5041 0 0 0
614 35 1 -0.050311 6.15003 8.87163 22.5327 0 0 0
615 35 2 -0.174311 5.42022 10.1853 22.4849 0 0 0
616 35 2 -0.174311 4.09152 10.4908 22.5584 0 0 0
617 35 1 -0.050311 3.0405 9.45564 22.7557 0 0 0
618 35 1 -0.091211 1.95592 9.77481 21.6842 0 0 0
619 35 3 0.033922 7.55143 7.8937 -2.34066 0 0 1