ITEM: TIMESTEP
68100
ITEM: NUMBER OF ATOMS
1800
ITEM: BOX BOUNDS pp pp pp
-3.0903775330401047e+00 4.1898393033039106e+01
-2.8277559703304966e-01 2.1891431097033326e+01
2.6269239761130336e-01 2.0991041102388216e+01
ITEM: ATOMS id mol type q x y z ix iy iz
1 1 1 -0.091211 0.839574 13.5661 14.9048 0 -1 0
2 1 1 -0.050311 1.81342 13.0086 13.8384 0 -1 0
3 1 2 -0.174311 1.90004 14.1193 12.833 0 -1 0
4 1 2 -0.174311 2.30361 13.9709 11.5409 0 -1 0
5 1 1 -0.050311 3.06528 12.7429 11.0643 0 -1 0
6 1 1 -0.091211 2.26549 12.0465 10.0171 0 -1 0
7 1 3 0.033922 1.17269 14.4716 15.4204 0 -1 0
8 1 3 0.033922 0.669044 12.8381 15.7033 0 -1 0
9 1 3 0.033922 -0.130094 13.7922 14.4518 0 -1 0
10 1 3 0.046089 2.77381 12.8595 14.3404 0 -1 0
11 1 3 0.046089 1.46019 12.0619 13.4193 0 -1 0
12 1 4 0.121889 1.49155 15.0949 13.0764 0 -1 0
13 1 4 0.121889 2.21172 14.8076 10.8557 0 -1 0
14 1 3 0.046089 3.41797 12.0455 11.8296 0 -1 0
15 1 3 0.046089 3.90827 13.1597 10.5054 0 -1 0
16 1 3 0.033922 2.75526 11.0851 9.83702 0 -1 0
17 1 3 0.033922 1.2444 11.9429 10.3957 0 -1 0
18 1 3 0.033922 2.26076 12.6422 9.09971 0 -1 0
19 2 1 -0.091211 9.68387 4.96211 10.992 0 0 0
20 2 1 -0.050311 10.6538 6.10714 11.0103 0 0 0
21 2 2 -0.174311 11.6836 6.05597 9.91563 0 0 0
22 2 2 -0.174311 13.0606 5.89466 10.0292 0 0 0
23 2 1 -0.050311 13.8583 5.82218 11.2491 0 0 0
24 2 1 -0.091211 15.3663 5.84086 10.8496 0 0 0
25 2 3 0.033922 10.2474 4.0381 10.8332 0 0 0
26 2 3 0.033922 8.94934 4.98601 10.1817 0 0 0
27 2 3 0.033922 9.19508 4.89005 11.968 0 0 0
28 2 3 0.046089 10.1407 7.07298 10.9883 0 0 0
29 2 3 0.046089 11.1829 6.04821 11.9659 0 0 0
30 2 4 0.121889 11.3481 6.18492 8.89154 0 0 0
31 2 4 0.121889 13.6412 5.89592 9.11215 0 0 0
32 2 3 0.046089 13.7456 4.88331 11.799 0 0 0
33 2 3 0.046089 13.7018 6.66336 11.9307 0 0 0
34 2 3 0.033922 15.9277 5.36363 11.6582 0 0 0
35 2 3 0.033922 15.4085 5.28618 9.90776 0 0 0
36 2 3 0.033922 15.7424 6.86642 10.7918 0 0 0
37 3 1 -0.091211 -0.949186 2.17607 10.3954 0 0 0
38 3 1 -0.050311 0.401544 2.88334 10.429 0 0 0
39 3 2 -0.174311 1.40849 2.15755 11.2204 0 0 0
40 3 2 -0.174311 2.69723 2.5577 11.429 0 0 0
41 3 1 -0.050311 3.44149 3.75166 10.7451 0 0 0
42 3 1 -0.091211 3.644 4.94579 11.7502 0 0 0
43 3 3 0.033922 -0.927318 1.16677 9.9742 0 0 0
44 3 3 0.033922 -1.70403 2.72688 9.82666 0 0 0
45 3 3 0.033922 -1.2672 1.97736 11.423 0 0 0
46 3 3 0.046089 0.648443 3.05324 9.37695 0 0 0
47 3 3 0.046089 0.205758 3.84046 10.9211 0 0 0
48 3 4 0.121889 0.976527 1.3221 11.7621 0 0 0
49 3 4 0.121889 3.28891 1.93129 12.0889 0 0 0
50 3 3 0.046089 2.8568 4.03717 9.8658 0 0 0
51 3 3 0.046089 4.4369 3.44879 10.4074 0 0 0
52 3 3 0.033922 4.31983 5.6928 11.3238 0 0 0
53 3 3 0.033922 2.66734 5.32749 12.0618 0 0 0
54 3 3 0.033922 4.12646 4.41766 12.5778 0 0 0
55 4 1 -0.091211 4.82576 15.9591 13.9722 0 -1 0
56 4 1 -0.050311 4.08023 17.1634 13.4992 0 -1 0
57 4 2 -0.174311 4.57385 18.4287 14.0695 0 -1 0
58 4 2 -0.174311 3.79583 19.4945 14.3657 0 -1 0
59 4 1 -0.050311 2.27887 19.5489 14.0591 0 -1 0
60 4 1 -0.091211 1.88249 20.9816 13.7933 0 -1 0
61 4 3 0.033922 5.88635 16.1996 13.854 0 -1 0
62 4 3 0.033922 4.58041 15.1218 13.3125 0 -1 0
63 4 3 0.033922 4.61809 15.6985 15.0141 0 -1 0
64 4 3 0.046089 4.16043 17.2401 12.411 0 -1 0
65 4 3 0.046089 3.01479 17.0152 13.698 0 -1 0
66 4 4 0.121889 5.65032 18.4642 14.2037 0 -1 0
67 4 4 0.121889 4.32149 20.2675 14.9171 0 -1 0
68 4 3 0.046089 1.73257 19.1318 14.9101 0 -1 0
69 4 3 0.046089 2.00976 19.0652 13.1156 0 -1 0
70 4 3 0.033922 2.48561 21.4371 13.0025 0 -1 0
71 4 3 0.033922 0.810095 21.0731 13.5976 0 -1 0
72 4 3 0.033922 2.01396 21.5719 14.7048 0 -1 0
73 5 1 -0.091211 -2.20744 7.77692 9.65177 0 0 0
74 5 1 -0.050311 41.268 7.6631 9.42831 -1 0 0
75 5 2 -0.174311 40.7871 6.21952 9.39445 -1 0 0
76 5 2 -0.174311 39.4552 5.78241 9.69462 -1 0 0
77 5 1 -0.050311 38.3463 6.59821 10.2383 -1 0 0
78 5 1 -0.091211 37.4786 7.05205 9.11269 -1 0 0
79 5 3 0.033922 -1.89673 8.80249 9.43217 0 0 0
80 5 3 0.033922 -1.71737 7.06806 8.97802 0 0 0
81 5 3 0.033922 -1.91823 7.57965 10.6881 0 0 0
82 5 3 0.046089 40.707 8.21089 10.1911 -1 0 0
83 5 3 0.046089 41.0746 8.15329 8.46972 -1 0 0
84 5 4 0.121889 41.5073 5.4464 9.14608 -1 0 0
85 5 4 0.121889 39.3061 4.70775 9.66604 -1 0 0
86 5 3 0.046089 38.688 7.45146 10.8314 -1 0 0
87 5 3 0.046089 37.8786 5.86868 10.9058 -1 0 0
88 5 3 0.033922 37.5455 6.40176 8.23564 -1 0 0
89 5 3 0.033922 36.4366 7.04251 9.44561 -1 0 0
90 5 3 0.033922 37.8966 8.03623 8.88208 -1 0 0
91 6 1 -0.091211 11.1051 8.60347 0.959144 0 0 1
92 6 1 -0.050311 10.5454 7.38273 1.64245 0 0 1
93 6 2 -0.174311 10.945 6.11371 0.89237 0 0 1
94 6 2 -0.174311 10.6835 4.72842 1.22545 0 0 1
95 6 1 -0.050311 10.1117 4.30716 2.59418 0 0 1
96 6 1 -0.091211 8.60954 4.13088 2.42089 0 0 1
97 6 3 0.033922 10.7932 8.57636 20.6394 0 0 0
98 6 3 0.033922 12.1973 8.57381 1.01314 0 0 1
99 6 3 0.033922 10.7743 9.5526 1.39071 0 0 1
100 6 3 0.046089 10.778 7.52072 2.70238 0 0 1
101 6 3 0.046089 9.45503 7.37724 1.55499 0 0 1
102 6 4 0.121889 11.4577 6.11691 20.6641 0 0 0
103 6 4 0.121889 11.0694 3.98232 0.538174 0 0 1
104 6 3 0.046089 10.3363 5.15547 3.24724 0 0 1
105 6 3 0.046089 10.6047 3.40585 2.96986 0 0 1
106 6 3 0.033922 8.10446 3.92952 3.37007 0 0 1
107 6 3 0.033922 8.21658 5.06154 2.00134 0 0 1
108 6 3 0.033922 8.32281 3.28748 1.78606 0 0 1
109 7 1 -0.091211 35.8058 20.3075 20.2557 -1 0 -1
110 7 1 -0.050311 34.7927 20.8174 0.48621 -1 0 0
111 7 2 -0.174311 34.8353 0.183126 0.453934 -1 1 0
112 7 2 -0.174311 33.8043 0.976381 20.8052 -1 1 -1
113 7 1 -0.050311 32.4394 0.548108 20.3067 -1 1 -1
114 7 1 -0.091211 31.8575 1.59711 19.3659 -1 1 -1
115 7 3 0.033922 36.8196 20.718 20.2375 -1 0 -1
116 7 3 0.033922 35.4295 20.4431 19.2376 -1 0 -1
117 7 3 0.033922 35.9384 19.2331 20.4128 -1 0 -1
118 7 3 0.046089 33.8411 20.3584 0.202544 -1 0 0
119 7 3 0.046089 35.0201 20.4502 1.49124 -1 0 0
120 7 4 0.121889 35.8039 0.639334 0.631687 -1 1 0
121 7 4 0.121889 34.0476 2.03304 20.8528 -1 1 -1
122 7 3 0.046089 31.8207 0.451042 0.47522 -1 1 0
123 7 3 0.046089 32.3539 21.7001 19.9268 -1 0 -1
124 7 3 0.033922 32.5521 1.77258 18.5392 -1 1 -1
125 7 3 0.033922 30.9042 1.1915 19.0148 -1 1 -1
126 7 3 0.033922 31.7767 2.613 19.7634 -1 1 -1
127 8 1 -0.091211 37.2675 8.51028 4.13993 -1 0 1
128 8 1 -0.050311 38.6443 8.26785 3.43788 -1 0 1
129 8 2 -0.174311 39.7811 8.62569 4.32514 -1 0 1
130 8 2 -0.174311 41.1078 8.8953 3.97181 -1 0 1
131 8 1 -0.050311 41.5048 8.73055 2.49317 -1 0 1
132 8 1 -0.091211 41.4138 9.97619 1.65448 -1 0 1
133 8 3 0.033922 36.5432 8.35827 3.33441 -1 0 1
134 8 3 0.033922 37.2457 9.56306 4.4361 -1 0 1
135 8 3 0.033922 37.0854 7.82387 4.97194 -1 0 1
136 8 3 0.046089 38.805 7.24158 3.0951 -1 0 1
137 8 3 0.046089 38.6784 8.90136 2.54678 -1 0 1
138 8 4 0.121889 39.523 8.8974 5.34373 -1 0 1
139 8 4 0.121889 41.8261 9.18893 4.73067 -1 0 1
140 8 3 0.046089 40.959 7.87972 2.07516 -1 0 1
141 8 3 0.046089 -2.41565 8.49928 2.44961 0 0 1
142 8 3 0.033922 41.5164 9.72404 0.595007 -1 0 1
143 8 3 0.033922 40.4551 10.4715 1.83376 -1 0 1
144 8 3 0.033922 -2.78964 10.6664 1.97637 0 0 1
145 9 1 -0.091211 35.9294 0.0886023 4.69268 -1 1 1
146 9 1 -0.050311 37.3422 0.154249 3.98346 -1 1 1
147 9 2 -0.174311 38.2138 1.20311 4.55759 -1 1 1
148 9 2 -0.174311 39.4517 1.44211 4.02251 -1 1 1
149 9 1 -0.050311 40.0716 0.678887 2.87608 -1 1 1
150 9 1 -0.091211 41.1834 1.59062 2.12427 -1 1 1
151 9 3 0.033922 35.9593 -0.0179839 5.78094 -1 1 1
152 9 3 0.033922 35.2675 21.5017 4.26935 -1 0 1
153 9 3 0.033922 35.3709 1.01312 4.5199 -1 1 1
154 9 3 0.046089 37.8049 21.3497 4.13959 -1 0 1
155 9 3 0.046089 37.2854 0.281036 2.89844 -1 1 1
156 9 4 0.121889 37.9434 1.9083 5.33703 -1 1 1
157 9 4 0.121889 40.1552 2.06886 4.56126 -1 1 1
158 9 3 0.046089 39.3462 0.426076 2.09732 -1 1 1
159 9 3 0.046089 40.5592 -0.252091 3.17957 -1 1 1
160 9 3 0.033922 -2.95541 1.6825 2.80668 0 1 1
161 9 3 0.033922 41.5618 1.14788 1.19833 -1 1 1
162 9 3 0.033922 40.8621 2.58599 1.80402 -1 1 1
163 10 1 -0.091211 5.19934 12.6345 3.92345 0 0 1
164 10 1 -0.050311 4.59917 11.463 4.63583 0 0 1
165 10 2 -0.174311 5.71881 10.5135 5.15993 0 0 1
166 10 2 -0.174311 5.80034 9.96059 6.41326 0 0 1
167 10 1 -0.050311 4.82127 10.1804 7.57263 0 0 1
168 10 1 -0.091211 4.64461 8.87208 8.35614 0 0 1
169 10 3 0.033922 5.78157 13.3296 4.53533 0 0 1
170 10 3 0.033922 4.38119 13.2246 3.50035 0 0 1
171 10 3 0.033922 5.81424 12.2614 3.09925 0 0 1
172 10 3 0.046089 3.87228 11.77 5.39346 0 0 1
173 10 3 0.046089 3.98196 10.871 3.95385 0 0 1
174 10 4 0.121889 6.42686 10.1695 4.41272 0 0 1
175 10 4 0.121889 6.63114 9.28761 6.60002 0 0 1
176 10 3 0.046089 3.88279 10.5112 7.11824 0 0 1
177 10 3 0.046089 5.17082 10.9381 8.27991 0 0 1
178 10 3 0.033922 4.41096 8.03717 7.68914 0 0 1
179 10 3 0.033922 5.63681 8.68679 8.77787 0 0 1
180 10 3 0.033922 3.87183 8.97092 9.12404 0 0 1
181 11 1 -0.091211 -2.1825 15.8533 17.0186 0 0 0
182 11 1 -0.050311 -1.95446 17.0643 16.188 0 0 0
183 11 2 -0.174311 -0.917585 16.8625 15.1227 0 0 0
184 11 2 -0.174311 -0.738043 17.6406 13.9874 0 0 0
185 11 1 -0.050311 -1.74309 18.7182 13.5175 0 0 0
186 11 1 -0.091211 -1.52837 19.0505 12.0863 0 0 0
187 11 3 0.033922 -2.67432 15.123 16.3695 0 0 0
188 11 3 0.033922 -2.78894 16.1406 17.8825 0 0 0
189 11 3 0.033922 -1.22265 15.4652 17.3718 0 0 0
190 11 3 0.046089 -2.94946 17.3477 15.8326 0 0 0
191 11 3 0.046089 -1.76519 17.7975 16.9775 0 0 0
192 11 4 0.121889 -0.286035 16.0086 15.3462 0 0 0
193 11 4 0.121889 0.155686 17.5046 13.3867 0 0 0
194 11 3 0.046089 -1.48551 19.6578 14.0148 0 0 0
195 11 3 0.046089 -2.8002 18.5459 13.74 0 0 0
196 11 3 0.033922 -1.79536 18.1351 11.5504 0 0 0
197 11 3 0.033922 -2.16987 19.8824 11.7811 0 0 0
198 11 3 0.033922 -0.509249 19.388 11.8761 0 0 0
199 12 1 -0.091211 -1.06439 11.0958 5.06123 0 0 0
200 12 1 -0.050311 -0.000960607 10.2322 5.83788 0 0 0
201 12 2 -0.174311 -0.322262 8.74106 5.71581 0 0 0
202 12 2 -0.174311 0.2018 7.70577 6.49741 0 0 0
203 12 1 -0.050311 1.05019 7.83179 7.6828 0 0 0
204 12 1 -0.091211 1.95834 6.58784 7.66541 0 0 0
205 12 3 0.033922 -0.867113 12.1632 5.19613 0 0 0
206 12 3 0.033922 -2.08969 10.8514 5.354 0 0 0
207 12 3 0.033922 -1.1344 10.9485 3.97958 0 0 0
208 12 3 0.046089 1.03599 10.4159 5.54185 0 0 0
209 12 3 0.046089 -0.131632 10.5527 6.87554 0 0 0
210 12 4 0.121889 -0.814326 8.37896 4.81874 0 0 0
211 12 4 0.121889 0.00562665 6.70899 6.11544 0 0 0
212 12 3 0.046089 0.505894 7.75928 8.62889 0 0 0
213 12 3 0.046089 1.70687 8.70491 7.62786 0 0 0
214 12 3 0.033922 1.23257 5.76948 7.65381 0 0 0
215 12 3 0.033922 2.57973 6.52182 6.76757 0 0 0
216 12 3 0.033922 2.49938 6.53081 8.61442 0 0 0
217 13 1 -0.091211 -0.316292 11.6108 20.7224 0 0 0
218 13 1 -0.050311 0.977782 12.3597 0.308616 0 0 1
219 13 2 -0.174311 1.31148 12.3709 1.79248 0 0 1
220 13 2 -0.174311 1.94112 13.2923 2.53853 0 0 1
221 13 1 -0.050311 2.38949 14.6789 2.10792 0 0 1
222 13 1 -0.091211 1.66977 15.8209 2.89565 0 0 1
223 13 3 0.033922 -1.12022 12.1031 0.549053 0 0 1
224 13 3 0.033922 -0.327375 10.554 0.276017 0 0 1
225 13 3 0.033922 -0.590234 11.758 19.6737 0 0 0
226 13 3 0.046089 1.79085 11.8531 20.5089 0 0 0
227 13 3 0.046089 0.750475 13.3666 20.6747 0 0 0
228 13 4 0.121889 0.993046 11.4766 2.31861 0 0 1
229 13 4 0.121889 2.12331 13.0855 3.58829 0 0 1
230 13 3 0.046089 2.12793 14.5951 1.04908 0 0 1
231 13 3 0.046089 3.48004 14.7613 2.13187 0 0 1
232 13 3 0.033922 0.586355 15.7177 2.78504 0 0 1
233 13 3 0.033922 1.90564 15.7772 3.96291 0 0 1
234 13 3 0.033922 2.02083 16.7812 2.50698 0 0 1
235 14 1 -0.091211 15.2547 10.4025 10.9507 0 0 0
236 14 1 -0.050311 13.8546 9.94581 10.6703 0 0 0
237 14 2 -0.174311 13.4863 10.3559 9.29851 0 0 0
238 14 2 -0.174311 12.1375 10.3808 8.92988 0 0 0
239 14 1 -0.050311 11.0594 9.96962 9.91207 0 0 0
240 14 1 -0.091211 9.83734 9.70619 9.17202 0 0 0
241 14 3 0.033922 15.5561 11.4177 10.6768 0 0 0
242 14 3 0.033922 15.8726 9.64237 10.4639 0 0 0
243 14 3 0.033922 15.424 10.3579 12.0305 0 0 0
244 14 3 0.046089 13.7734 8.86928 10.8464 0 0 0
245 14 3 0.046089 13.1526 10.3073 11.4274 0 0 0
246 14 4 0.121889 14.2679 10.5966 8.58499 0 0 0
247 14 4 0.121889 11.8262 10.7662 7.96423 0 0 0
248 14 3 0.046089 10.9096 10.8055 10.6016 0 0 0
249 14 3 0.046089 11.3319 9.08428 10.4938 0 0 0
250 14 3 0.033922 9.0976 9.39366 9.9148 0 0 0
251 14 3 0.033922 9.44211 10.5647 8.62121 0 0 0
252 14 3 0.033922 9.94855 8.83183 8.52419 0 0 0
253 15 1 -0.091211 2.88814 20.0167 4.72208 0 0 1
254 15 1 -0.050311 2.81083 21.2662 3.93361 0 0 1
255 15 2 -0.174311 3.1451 20.9203 2.56257 0 0 1
256 15 2 -0.174311 4.31198 21.149 1.88597 0 0 1
257 15 1 -0.050311 5.38832 21.9482 2.56812 0 0 1
258 15 1 -0.091211 6.11454 0.579698 1.47441 0 1 1
259 15 3 0.033922 2.04756 19.3733 4.44619 0 0 1
260 15 3 0.033922 2.8669 20.2612 5.78807 0 0 1
261 15 3 0.033922 3.82424 19.474 4.56116 0 0 1
262 15 3 0.046089 1.78868 21.6558 3.94162 0 0 1
263 15 3 0.046089 3.44483 -0.168746 4.43175 0 1 1
264 15 4 0.121889 2.40294 20.5087 1.88594 0 0 1
265 15 4 0.121889 4.50003 20.828 0.866365 0 0 1
266 15 3 0.046089 6.10274 21.2642 3.03537 0 0 1
267 15 3 0.046089 4.96264 0.498375 3.26856 0 1 1
268 15 3 0.033922 6.30648 -0.0467968 0.598499 0 1 1
269 15 3 0.033922 5.46162 1.39969 1.16152 0 1 1
270 15 3 0.033922 7.10125 0.975158 1.73258 0 1 1
271 16 1 -0.091211 5.62974 5.42274 7.97255 0 1 0
272 16 1 -0.050311 6.69087 4.47244 7.36726 0 1 0
273 16 2 -0.174311 7.03253 4.88178 5.98059 0 1 0
274 16 2 -0.174311 7.90137 5.8565 5.63219 0 1 0
275 16 1 -0.050311 8.68383 6.71152 6.56204 0 1 0
276 16 1 -0.091211 10.1107 6.84854 6.00025 0 1 0
277 16 3 0.033922 5.94349 6.46119 7.83203 0 1 0
278 16 3 0.033922 5.49549 5.23489 9.04178 0 1 0
279 16 3 0.033922 4.75151 5.24888 7.34397 0 1 0
280 16 3 0.046089 7.58314 4.493 7.99978 0 1 0
281 16 3 0.046089 6.28303 3.45923 7.42756 0 1 0
282 16 4 0.121889 6.68318 4.20618 5.20632 0 1 0
283 16 4 0.121889 8.05384 6.06056 4.57716 0 1 0
284 16 3 0.046089 8.80531 6.35489 7.58899 0 1 0
285 16 3 0.046089 8.2022 7.6812 6.71799 0 1 0
286 16 3 0.033922 10.1647 7.10164 4.93742 0 1 0
287 16 3 0.033922 10.5452 7.61592 6.64749 0 1 0
288 16 3 0.033922 10.6121 5.89681 6.1988 0 1 0
289 17 1 -0.091211 5.80461 12.3543 16.2619 0 0 0
290 17 1 -0.050311 6.59252 13.0045 15.1093 0 0 0
291 17 2 -0.174311 6.00519 12.5855 13.7596 0 0 0
292 17 2 -0.174311 6.7277 12.7332 12.5531 0 0 0
293 17 1 -0.050311 7.8823 13.6901 12.4025 0 0 0
294 17 1 -0.091211 8.95644 13.1079 11.4165 0 0 0
295 17 3 0.033922 6.08584 12.6353 17.281 0 0 0
296 17 3 0.033922 5.89817 11.2645 16.2471 0 0 0
297 17 3 0.033922 4.78206 12.7131 16.1126 0 0 0
298 17 3 0.046089 6.55274 14.0945 15.1916 0 0 0
299 17 3 0.046089 7.63107 12.666 15.1686 0 0 0
300 17 4 0.121889 5.14211 11.9398 13.6323 0 0 0
301 17 4 0.121889 6.39679 12.3281 11.6021 0 0 0
302 17 3 0.046089 8.30428 13.9383 13.3807 0 0 0
303 17 3 0.046089 7.48638 14.6095 11.9615 0 0 0
304 17 3 0.033922 9.65229 12.3819 11.847 0 0 0
305 17 3 0.033922 8.39112 12.4899 10.713 0 0 0
306 17 3 0.033922 9.59485 13.8598 10.9435 0 0 0
307 18 1 -0.091211 35.9494 7.63582 14.9046 -1 0 1
308 18 1 -0.050311 37.1496 7.70603 14.0071 -1 0 1
309 18 2 -0.174311 36.8576 8.45928 12.7253 -1 0 1
310 18 2 -0.174311 37.0036 9.82539 12.6371 -1 0 1
311 18 1 -0.050311 37.5373 10.7624 13.6819 -1 0 1
312 18 1 -0.091211 36.4901 11.8067 14.025 -1 0 1
313 18 3 0.033922 36.1456 7.05064 15.8077 -1 0 1
314 18 3 0.033922 35.1417 7.11682 14.3804 -1 0 1
315 18 3 0.033922 35.5176 8.59768 15.1961 -1 0 1
316 18 3 0.046089 37.9629 8.16848 14.5739 -1 0 1
317 18 3 0.046089 37.5384 6.69718 13.8412 -1 0 1
318 18 4 0.121889 36.4228 7.83366 11.9523 -1 0 1
319 18 4 0.121889 36.7635 10.2323 11.66 -1 0 1
320 18 3 0.046089 38.416 11.2909 13.3007 -1 0 1
321 18 3 0.046089 37.8287 10.2259 14.5895 -1 0 1
322 18 3 0.033922 36.3432 12.4123 13.1259 -1 0 1
323 18 3 0.033922 35.5973 11.3101 14.416 -1 0 1
324 18 3 0.033922 36.7839 12.4341 14.8715 -1 0 1
325 19 1 -0.091211 9.31338 11.2058 5.00916 0 0 0
326 19 1 -0.050311 10.909 11.2231 5.00837 0 0 0
327 19 2 -0.174311 11.3268 11.9729 3.75783 0 0 0
328 19 2 -0.174311 12.5434 11.7448 3.05066 0 0 0
329 19 1 -0.050311 13.3994 10.5885 3.50359 0 0 0
330 19 1 -0.091211 14.772 10.6985 2.75182 0 0 0
331 19 3 0.033922 8.8878 10.6311 5.83691 0 0 0
332 19 3 0.033922 8.93399 10.8133 4.06122 0 0 0
333 19 3 0.033922 9.01083 12.2432 5.1793 0 0 0
334 19 3 0.046089 11.2232 11.791 5.88889 0 0 0
335 19 3 0.046089 11.3125 10.2071 5.04769 0 0 0
336 19 4 0.121889 10.7316 12.8173 3.42517 0 0 0
337 19 4 0.121889 12.8246 12.3857 2.22111 0 0 0
338 19 3 0.046089 12.8892 9.62311 3.4373 0 0 0
339 19 3 0.046089 13.7729 10.7569 4.51785 0 0 0
340 19 3 0.033922 15.167 11.7145 2.84363 0 0 0
341 19 3 0.033922 15.4804 9.98077 3.17558 0 0 0
342 19 3 0.033922 14.6576 10.5021 1.68181 0 0 0
343 20 1 -0.091211 12.032 0.819578 11.3141 0 0 0
344 20 1 -0.050311 12.1751 -0.327857 10.3422 0 0 0
345 20 2 -0.174311 11.0756 21.7063 9.32875 0 -1 0
346 20 2 -0.174311 11.0199 20.6159 8.44629 0 -1 0
347 20 1 -0.050311 12.0723 19.5204 8.4161 0 -1 0
348 20 1 -0.091211 12.103 18.7979 7.00504 0 -1 0
349 20 3 0.033922 11.4215 0.545466 12.1794 0 0 0
350 20 3 0.033922 11.5653 1.67195 10.8119 0 0 0
351 20 3 0.033922 13.0434 1.10839 11.6149 0 0 0
352 20 3 0.046089 13.0756 -0.147771 9.7478 0 0 0
353 20 3 0.046089 12.3655 20.902 10.8603 0 -1 0
354 20 4 0.121889 10.442 0.393697 9.14404 0 0 0
355 20 4 0.121889 10.2131 20.5796 7.72121 0 -1 0
356 20 3 0.046089 11.9273 18.8147 9.23927 0 -1 0
357 20 3 0.046089 13.0634 19.9698 8.52728 0 -1 0
358 20 3 0.033922 11.1657 18.2731 6.79882 0 -1 0
359 20 3 0.033922 12.246 19.5412 6.21534 0 -1 0
360 20 3 0.033922 12.9628 18.1277 6.91423 0 -1 0
361 21 1 -0.091211 -0.653288 21.3875 20.6055 0 -1 0
362 21 1 -0.050311 -0.38547 0.688799 20.3986 0 0 0
363 21 2 -0.174311 0.94788 1.14892 20.7999 0 0 0
364 21 2 -0.174311 2.09223 0.956114 20.0926 0 0 0
365 21 1 -0.050311 2.0537 0.233068 18.7971 0 0 0
366 21 1 -0.091211 3.19156 0.582324 17.8444 0 0 0
367 21 3 0.033922 0.107646 20.7501 20.1458 0 -1 0
368 21 3 0.033922 -1.60992 21.0403 20.2043 0 -1 0
369 21 3 0.033922 -0.578905 21.2434 0.958917 0 -1 1
370 21 3 0.046089 -0.780297 0.924555 19.4061 0 0 0
371 21 3 0.046089 -1.03932 1.21019 21.1038 0 0 0
372 21 4 0.121889 1.09515 1.62552 1.03542 0 0 1
373 21 4 0.121889 3.02695 1.26 20.553 0 0 0
374 21 3 0.046089 1.13442 0.472556 18.2547 0 0 0
375 21 3 0.046089 1.96936 21.3311 18.9737 0 -1 0
376 21 3 0.033922 4.18323 0.312898 18.2194 0 0 0
377 21 3 0.033922 3.07716 0.139173 16.8509 0 0 0
378 21 3 0.033922 3.22113 1.6541 17.6276 0 0 0
379 22 1 -0.091211 7.60576 17.0419 10.0107 0 -1 0
380 22 1 -0.050311 8.8837 17.7388 10.4943 0 -1 0
381 22 2 -0.174311 9.9269 16.7908 11.1416 0 -1 0
382 22 2 -0.174311 10.4457 16.9483 12.4371 0 -1 0
383 22 1 -0.050311 10.247 18.1301 13.443 0 -1 0
384 22 1 -0.091211 9.20262 17.8087 14.4988 0 -1 0
385 22 3 0.033922 6.91086 17.8065 9.65151 0 -1 0
386 22 3 0.033922 7.16014 16.4489 10.8147 0 -1 0
387 22 3 0.033922 7.7751 16.4225 9.12513 0 -1 0
388 22 3 0.046089 9.39964 18.2436 9.67234 0 -1 0
389 22 3 0.046089 8.54081 18.4529 11.2486 0 -1 0
390 22 4 0.121889 10.2682 15.8784 10.6631 0 -1 0
391 22 4 0.121889 11.1122 16.1672 12.7886 0 -1 0
392 22 3 0.046089 9.94809 19.0377 12.9105 0 -1 0
393 22 3 0.046089 11.2191 18.3095 13.9115 0 -1 0
394 22 3 0.033922 8.25627 17.5603 14.0096 0 -1 0
395 22 3 0.033922 9.50295 16.9972 15.168 0 -1 0
396 22 3 0.033922 9.08794 18.7209 15.0915 0 -1 0
397 23 1 -0.091211 0.632025 5.68592 18.1924 0 0 -1
398 23 1 -0.050311 0.478105 5.7015 19.7708 0 0 -1
399 23 2 -0.174311 -0.264777 6.9476 20.261 0 0 -1
400 23 2 -0.174311 -0.091335 7.51694 0.744279 0 0 0
401 23 1 -0.050311 0.898606 7.00225 1.76901 0 0 0
402 23 1 -0.091211 0.230646 6.19402 2.86008 0 0 0
403 23 3 0.033922 1.08979 4.77285 17.8008 0 0 -1
404 23 3 0.033922 1.20703 6.51064 17.7614 0 0 -1
405 23 3 0.033922 -0.372727 5.82708 17.7835 0 0 -1
406 23 3 0.046089 -0.174569 4.85346 19.9976 0 0 -1
407 23 3 0.046089 1.47401 5.61492 20.215 0 0 -1
408 23 4 0.121889 -0.925407 7.39617 19.5259 0 0 -1
409 23 4 0.121889 -0.710839 8.39552 0.893612 0 0 0
410 23 3 0.046089 1.25728 7.96578 2.14254 0 0 0
411 23 3 0.046089 1.72175 6.43294 1.3275 0 0 0
412 23 3 0.033922 -0.0243098 5.1976 2.48765 0 0 0
413 23 3 0.033922 0.9409 6.09854 3.68654 0 0 0
414 23 3 0.033922 -0.675547 6.60285 3.31649 0 0 0
415 24 1 -0.091211 7.49165 9.78422 19.7387 0 0 -1
416 24 1 -0.050311 7.26833 10.4403 0.434489 0 0 0
417 24 2 -0.174311 6.40848 11.6778 21.0596 0 0 -1
418 24 2 -0.174311 6.86209 12.8939 0.701884 0 0 0
419 24 1 -0.050311 8.19781 13.2392 1.25823 0 0 0
420 24 1 -0.091211 8.08962 14.6906 1.88684 0 0 0
421 24 3 0.033922 7.12149 8.75518 19.7634 0 0 -1
422 24 3 0.033922 8.57875 9.70301 19.6476 0 0 -1
423 24 3 0.033922 7.10569 10.3283 18.8717 0 0 -1
424 24 3 0.046089 6.78636 9.79088 1.17103 0 0 0
425 24 3 0.046089 8.28815 10.6447 0.773407 0 0 0
426 24 4 0.121889 5.45397 11.6329 20.5449 0 0 -1
427 24 4 0.121889 6.19192 13.743 0.613123 0 0 0
428 24 3 0.046089 8.98476 13.2216 0.498612 0 0 0
429 24 3 0.046089 8.48679 12.5562 2.06233 0 0 0
430 24 3 0.033922 7.63447 15.3977 1.18725 0 0 0
431 24 3 0.033922 7.38918 14.6272 2.72468 0 0 0
432 24 3 0.033922 8.99394 15.1793 2.26108 0 0 0
433 25 1 -0.091211 6.08966 8.25195 12.4895 0 0 0
434 25 1 -0.050311 4.81108 8.11058 13.272 0 0 0
435 25 2 -0.174311 3.78147 8.91123 12.5294 0 0 0
436 25 2 -0.174311 2.69625 9.48584 13.1335 0 0 0
437 25 1 -0.050311 2.40243 9.42006 14.6052 0 0 0
438 25 1 -0.091211 0.966074 9.65351 14.9903 0 0 0
439 25 3 0.033922 6.10421 8.17204 11.3986 0 0 0
440 25 3 0.033922 6.78863 7.47689 12.8171 0 0 0
441 25 3 0.033922 6.53396 9.21486 12.7577 0 0 0
442 25 3 0.046089 4.39561 7.09987 13.3211 0 0 0
443 25 3 0.046089 5.06006 8.53357 14.2495 0 0 0
444 25 4 0.121889 3.84793 9.07585 11.4587 0 0 0
445 25 4 0.121889 1.99629 9.95953 12.4526 0 0 0
446 25 3 0.046089 3.00564 10.1442 15.1605 0 0 0
447 25 3 0.046089 2.70261 8.40067 14.8647 0 0 0
448 25 3 0.033922 0.42519 9.20049 14.1543 0 0 0
449 25 3 0.033922 0.665633 9.07932 15.8715 0 0 0
450 25 3 0.033922 0.758044 10.7249 15.0634 0 0 0
451 26 1 -0.091211 5.5228 18.1824 20.8622 0 -1 0
452 26 1 -0.050311 4.01342 18.0081 20.5091 0 -1 0
453 26 2 -0.174311 3.83245 18.0114 19.0024 0 -1 0
454 26 2 -0.174311 2.73999 17.5297 18.2437 0 -1 0
455 26 1 -0.050311 1.54098 16.8677 18.7978 0 -1 0
456 26 1 -0.091211 1.62455 15.3342 18.683 0 -1 0
457 26 3 0.033922 6.07039 17.3086 20.4972 0 -1 0
458 26 3 0.033922 5.58864 18.233 1.22461 0 -1 1
459 26 3 0.033922 5.98246 19.1014 20.487 0 -1 0
460 26 3 0.046089 3.72863 17.038 0.198342 0 -1 1
461 26 3 0.046089 3.41686 18.7811 21.0022 0 -1 0
462 26 4 0.121889 4.68197 18.4822 18.5179 0 -1 0
463 26 4 0.121889 2.94048 17.4436 17.1806 0 -1 0
464 26 3 0.046089 0.677073 17.1261 18.1785 0 -1 0
465 26 3 0.046089 1.39118 17.1755 19.8368 0 -1 0
466 26 3 0.033922 0.713751 14.8568 19.056 0 -1 0
467 26 3 0.033922 1.83469 15.1124 17.6326 0 -1 0
468 26 3 0.033922 2.39834 14.8579 19.2921 0 -1 0
469 27 1 -0.091211 14.6505 12.8912 20.5805 0 0 -1
470 27 1 -0.050311 15.5345 14.1197 20.3195 0 0 -1
471 27 2 -0.174311 16.8451 13.6048 19.744 0 0 -1
472 27 2 -0.174311 18.1014 13.9234 20.3261 0 0 -1
473 27 1 -0.050311 18.3341 15.0731 0.62375 0 0 0
474 27 1 -0.091211 19.7387 15.4254 0.918304 0 0 0
475 27 3 0.033922 13.6589 13.195 20.9284 0 0 -1
476 27 3 0.033922 15.125 12.2854 0.629591 0 0 0
477 27 3 0.033922 14.4351 12.3003 19.6855 0 0 -1
478 27 3 0.046089 15.156 14.8187 19.568 0 0 -1
479 27 3 0.046089 15.7404 14.6399 0.531151 0 0 0
480 27 4 0.121889 16.76 12.7668 19.0595 0 0 -1
481 27 4 0.121889 18.9244 13.3002 19.9908 0 0 -1
482 27 3 0.046089 17.8212 14.9135 1.57667 0 0 0
483 27 3 0.046089 17.7606 15.8991 0.193146 0 0 0
484 27 3 0.033922 20.2152 15.9613 20.8206 0 0 -1
485 27 3 0.033922 19.6887 15.9341 1.88537 0 0 0
486 27 3 0.033922 20.3745 14.5881 1.2206 0 0 0
487 28 1 -0.091211 9.0908 18.3097 1.21069 0 -1 0
488 28 1 -0.050311 8.9924 19.845 0.966481 0 -1 0
489 28 2 -0.174311 10.388 20.4637 0.885527 0 -1 0
490 28 2 -0.174311 11.067 21.1057 1.8945 0 -1 0
491 28 1 -0.050311 10.3935 21.3196 3.19139 0 -1 0
492 28 1 -0.091211 11.407 21.9302 4.17324 0 -1 0
493 28 3 0.033922 8.10754 17.8371 1.12981 0 -1 0
494 28 3 0.033922 9.56657 17.968 2.13454 0 -1 0
495 28 3 0.033922 9.71777 17.8997 0.413558 0 -1 0
496 28 3 0.046089 8.38591 20.0863 20.817 0 -1 -1
497 28 3 0.046089 8.37558 20.2862 1.75483 0 -1 0
498 28 4 0.121889 10.9368 20.1778 20.7222 0 -1 -1
499 28 4 0.121889 12.1151 21.2926 1.6835 0 -1 0
500 28 3 0.046089 9.94641 20.4111 3.60523 0 -1 0
501 28 3 0.046089 9.61071 -0.109123 3.0235 0 0 0
502 28 3 0.033922 11.0167 22.0492 5.18817 0 -1 0
503 28 3 0.033922 12.2763 21.2889 4.34547 0 -1 0
504 28 3 0.033922 11.6471 0.762376 3.81829 0 0 0
505 29 1 -0.091211 3.73141 8.94098 1.50478 0 0 0
506 29 1 -0.050311 4.48647 7.95467 2.39315 0 0 0
507 29 2 -0.174311 5.0884 6.8139 1.49722 0 0 0
508 29 2 -0.174311 5.17284 5.43042 1.77068 0 0 0
509 29 1 -0.050311 4.58457 4.79299 3.0324 0 0 0
510 29 1 -0.091211 3.33294 4.00863 2.73042 0 0 0
511 29 3 0.033922 2.91611 8.53 0.902293 0 0 0
512 29 3 0.033922 4.42078 9.44026 0.817685 0 0 0
513 29 3 0.033922 3.27975 9.78397 2.03576 0 0 0
514 29 3 0.046089 5.29163 8.45816 2.93614 0 0 0
515 29 3 0.046089 3.76002 7.53548 3.09541 0 0 0
516 29 4 0.121889 5.47803 7.21006 0.564902 0 0 0
517 29 4 0.121889 5.74815 4.81413 1.08718 0 0 0
518 29 3 0.046089 4.31204 5.46045 3.85507 0 0 0
519 29 3 0.046089 5.32324 4.07308 3.39668 0 0 0
520 29 3 0.033922 2.55769 4.62096 2.26067 0 0 0
521 29 3 0.033922 3.55592 3.22035 2.00553 0 0 0
522 29 3 0.033922 2.91739 3.56605 3.64038 0 0 0
523 30 1 -0.091211 3.52896 1.01435 8.12815 0 1 1
524 30 1 -0.050311 4.84138 0.831375 8.82548 0 1 1
525 30 2 -0.174311 5.09188 21.5337 9.1207 0 0 1
526 30 2 -0.174311 5.97692 21.0646 10.1448 0 0 1
527 30 1 -0.050311 6.74587 -0.172962 11.0099 0 1 1
528 30 1 -0.091211 7.75333 21.2327 11.8984 0 0 1
529 30 3 0.033922 2.80136 0.25143 8.41995 0 1 1
530 30 3 0.033922 3.57753 0.753456 7.06694 0 1 1
531 30 3 0.033922 3.24502 2.06986 8.17099 0 1 1
532 30 3 0.046089 5.68791 1.23881 8.26511 0 1 1
533 30 3 0.046089 4.74963 1.25363 9.83039 0 1 1
534 30 4 0.121889 4.66406 20.8281 8.4156 0 0 1
535 30 4 0.121889 6.13117 19.9943 10.2375 0 0 1
536 30 3 0.046089 6.24084 0.359061 11.8214 0 1 1
537 30 3 0.046089 7.26513 0.594874 10.4291 0 1 1
538 30 3 0.033922 8.27156 -0.316292 12.6313 0 1 1
539 30 3 0.033922 7.23265 20.3605 12.3044 0 0 1
540 30 3 0.033922 8.533 20.7608 11.2934 0 0 1
541 31 1 -0.091211 19.0656 1.12634 18.5384 0 1 0
542 31 1 -0.050311 20.1261 1.86321 17.7463 0 1 0
543 31 2 -0.174311 19.5767 2.75294 16.6109 0 1 0
544 31 2 -0.174311 20.1946 3.07584 15.4147 0 1 0
545 31 1 -0.050311 21.5988 2.57174 15.1218 0 1 0
546 31 1 -0.091211 22.2739 3.37226 14.0328 0 1 0
547 31 3 0.033922 18.4732 1.82133 19.1406 0 1 0
548 31 3 0.033922 19.5169 0.482684 19.2991 0 1 0
549 31 3 0.033922 18.5116 0.470736 17.8602 0 1 0
550 31 3 0.046089 20.7183 2.45861 18.4473 0 1 0
551 31 3 0.046089 20.7549 1.16406 17.1874 0 1 0
552 31 4 0.121889 18.5487 3.08395 16.7186 0 1 0
553 31 4 0.121889 19.6695 3.52836 14.5796 0 1 0
554 31 3 0.046089 21.6897 1.49735 14.9375 0 1 0
555 31 3 0.046089 22.1984 2.85768 15.991 0 1 0
556 31 3 0.033922 21.7436 3.20793 13.0903 0 1 0
557 31 3 0.033922 22.2434 4.45337 14.1966 0 1 0
558 31 3 0.033922 23.2934 3.0259 13.8391 0 1 0
559 32 1 -0.091211 16.8592 0.869889 10.7557 0 1 0
560 32 1 -0.050311 15.8071 1.6569 9.96001 0 1 0
561 32 2 -0.174311 15.5528 1.02829 8.63708 0 1 0
562 32 2 -0.174311 14.5495 1.57713 7.84514 0 1 0
563 32 1 -0.050311 13.5676 2.66291 8.23111 0 1 0
564 32 1 -0.091211 12.525 3.03537 7.195 0 1 0
565 32 3 0.033922 17.2536 1.48444 11.5702 0 1 0
566 32 3 0.033922 17.6742 0.583136 10.0847 0 1 0
567 32 3 0.033922 16.4132 -0.0419439 11.1633 0 1 0
568 32 3 0.046089 14.9003 1.74455 10.5655 0 1 0
569 32 3 0.046089 16.1711 2.65454 9.69776 0 1 0
570 32 4 0.121889 16.0816 0.153442 8.27241 0 1 0
571 32 4 0.121889 14.5163 1.15832 6.84441 0 1 0
572 32 3 0.046089 14.1592 3.5789 8.31764 0 1 0
573 32 3 0.046089 13.1554 2.37715 9.20324 0 1 0
574 32 3 0.033922 11.8969 3.87948 7.49421 0 1 0
575 32 3 0.033922 12.8732 3.14146 6.16345 0 1 0
576 32 3 0.033922 11.8154 2.2048 7.25208 0 1 0
577 33 1 -0.091211 14.5774 8.07589 14.5019 0 0 0
578 33 1 -0.050311 15.0046 8.63506 15.8706 0 0 0
579 33 2 -0.174311 16.4905 8.41759 16.0603 0 0 0
580 33 2 -0.174311 17.2817 9.33829 16.669 0 0 0
581 33 1 -0.050311 16.9024 10.7181 17.1572 0 0 0
582 33 1 -0.091211 16.9285 11.666 16.0266 0 0 0
583 33 3 0.033922 14.7993 7.00515 14.4735 0 0 0
584 33 3 0.033922 15.2633 8.508 13.7674 0 0 0
585 33 3 0.033922 13.5093 8.29807 14.4224 0 0 0
586 33 3 0.046089 14.661 9.67191 15.9295 0 0 0
587 33 3 0.046089 14.4787 8.03181 16.6163 0 0 0
588 33 4 0.121889 16.9158 7.46664 15.7557 0 0 0
589 33 4 0.121889 18.3132 9.03362 16.8143 0 0 0
590 33 3 0.046089 17.5953 11.1397 17.8912 0 0 0
591 33 3 0.046089 15.8801 10.7107 17.5465 0 0 0
592 33 3 0.033922 17.9519 11.9426 15.7568 0 0 0
593 33 3 0.033922 16.4907 11.225 15.1264 0 0 0
594 33 3 0.033922 16.3424 12.5628 16.2476 0 0 0
595 34 1 -0.091211 16.8075 19.757 7.43308 0 0 0
596 34 1 -0.050311 17.0037 19.3 8.87825 0 0 0
597 34 2 -0.174311 15.8206 18.4329 9.2154 0 0 0
598 34 2 -0.174311 15.109 18.4661 10.4058 0 0 0
599 34 1 -0.050311 15.4587 19.3205 11.5973 0 0 0
600 34 1 -0.091211 14.805 18.7691 12.8779 0 0 0
601 34 3 0.033922 16.7247 18.8422 6.83919 0 0 0
602 34 3 0.033922 17.5071 20.4299 6.92876 0 0 0
603 34 3 0.033922 15.8445 20.2573 7.29494 0 0 0
604 34 3 0.046089 17.9197 18.7045 8.93308 0 0 0
605 34 3 0.046089 17.0936 20.1409 9.57204 0 0 0
606 34 4 0.121889 15.5193 17.6782 8.49594 0 0 0
607 34 4 0.121889 14.2861 17.7703 10.5346 0 0 0
608 34 3 0.046089 15.0928 20.3295 11.3865 0 0 0
609 34 3 0.046089 16.5422 19.3629 11.742 0 0 0
610 34 3 0.033922 13.7143 18.7442 12.7977 0 0 0
611 34 3 0.033922 15.1074 17.7221 12.9714 0 0 0
612 34 3 0.033922 15.255 19.3523 13.6866 0 0 0
613 35 1 -0.091211 39.9405 13.2497 18.3275 -1 0 0
614 35 1 -0.050311 39.2215 12.0118 18.9101 -1 0 0
615 35 2 -0.174311 38.1415 11.4758 17.9126 -1 0 0