ITEM: TIMESTEP
63800
ITEM: NUMBER OF ATOMS
1800
ITEM: BOX BOUNDS pp pp pp
-2.5729923746141417e+00 4.1381007874613019e+01
-1.2531713101863389e+00 2.2861826810186678e+01
6.4854040428848059e-01 2.0605193095711265e+01
ITEM: ATOMS id mol type q x y z ix iy iz
1 1 1 -0.091211 1.97947 12.6252 12.3486 0 -1 0
2 1 1 -0.050311 2.50143 11.6802 11.2659 0 -1 0
3 1 2 -0.174311 3.81813 11.1101 11.7827 0 -1 0
4 1 2 -0.174311 3.89875 9.8752 12.3928 0 -1 0
5 1 1 -0.050311 2.80263 8.86329 12.3287 0 -1 0
6 1 1 -0.091211 3.3625 7.47024 12.8845 0 -1 0
7 1 3 0.033922 1.71158 12.0689 13.2516 0 -1 0
8 1 3 0.033922 0.975884 13.0205 12.1665 0 -1 0
9 1 3 0.033922 2.70019 13.4247 12.5437 0 -1 0
10 1 3 0.046089 1.76947 10.8912 11.0699 0 -1 0
11 1 3 0.046089 2.59356 12.231 10.3253 0 -1 0
12 1 4 0.121889 4.67559 11.7755 11.7792 0 -1 0
13 1 4 0.121889 4.85858 9.52523 12.7592 0 -1 0
14 1 3 0.046089 2.40573 8.78853 11.3121 0 -1 0
15 1 3 0.046089 1.99385 9.19377 12.987 0 -1 0
16 1 3 0.033922 2.70399 6.68239 12.5073 0 -1 0
17 1 3 0.033922 4.35922 7.23309 12.5012 0 -1 0
18 1 3 0.033922 3.39973 7.43071 13.9771 0 -1 0
19 2 1 -0.091211 8.39241 5.64688 11.3671 0 0 0
20 2 1 -0.050311 9.55358 6.39664 10.7549 0 0 0
21 2 2 -0.174311 9.99321 5.56497 9.589 0 0 0
22 2 2 -0.174311 11.1623 4.83896 9.55969 0 0 0
23 2 1 -0.050311 12.2942 4.6048 10.5799 0 0 0
24 2 1 -0.091211 13.6667 4.7945 9.94355 0 0 0
25 2 3 0.033922 8.6396 4.62301 11.6624 0 0 0
26 2 3 0.033922 7.57067 5.6577 10.6451 0 0 0
27 2 3 0.033922 8.06321 6.17833 12.2648 0 0 0
28 2 3 0.046089 9.392 7.43371 10.4467 0 0 0
29 2 3 0.046089 10.3216 6.47163 11.5303 0 0 0
30 2 4 0.121889 9.3463 5.48092 8.72153 0 0 0
31 2 4 0.121889 11.2691 4.18338 8.70127 0 0 0
32 2 3 0.046089 12.1611 3.62002 11.0372 0 0 0
33 2 3 0.046089 12.2257 5.3275 11.3983 0 0 0
34 2 3 0.033922 14.4159 4.3006 10.5691 0 0 0
35 2 3 0.033922 13.7118 4.38615 8.92968 0 0 0
36 2 3 0.033922 13.922 5.85806 9.92616 0 0 0
37 3 1 -0.091211 4.23161 4.06614 13.1782 0 0 0
38 3 1 -0.050311 3.08002 3.40328 12.4831 0 0 0
39 3 2 -0.174311 1.94658 3.06314 13.4295 0 0 0
40 3 2 -0.174311 1.41816 1.82654 13.825 0 0 0
41 3 1 -0.050311 2.01017 0.480551 13.5768 0 0 0
42 3 1 -0.091211 0.872218 -0.543588 13.2204 0 0 0
43 3 3 0.033922 3.82478 5.05066 13.4269 0 0 0
44 3 3 0.033922 5.09468 4.15469 12.512 0 0 0
45 3 3 0.033922 4.49614 3.52448 14.0911 0 0 0
46 3 3 0.046089 2.68206 4.1069 11.746 0 0 0
47 3 3 0.046089 3.47646 2.52346 11.9679 0 0 0
48 3 4 0.121889 1.32372 3.9167 13.6775 0 0 0
49 3 4 0.121889 0.451428 1.76826 14.315 0 0 0
50 3 3 0.046089 2.35955 0.186788 14.5709 0 0 0
51 3 3 0.046089 2.84557 0.376913 12.8782 0 0 0
52 3 3 0.033922 1.22911 22.5628 12.9923 0 -1 0
53 3 3 0.033922 0.147651 -0.684612 14.0277 0 0 0
54 3 3 0.033922 0.359368 -0.150917 12.3375 0 0 0
55 4 1 -0.091211 -0.21758 19.8144 13.7846 0 -1 0
56 4 1 -0.050311 -0.857791 19.3264 12.5504 0 -1 0
57 4 2 -0.174311 -1.23417 20.4567 11.6095 0 -1 0
58 4 2 -0.174311 -0.799484 20.534 10.2859 0 -1 0
59 4 1 -0.050311 -0.115381 19.4368 9.4915 0 -1 0
60 4 1 -0.091211 -0.143474 19.8776 8.01757 0 -1 0
61 4 3 0.033922 0.735634 20.2921 13.5401 0 -1 0
62 4 3 0.033922 0.127846 18.9967 14.4239 0 -1 0
63 4 3 0.033922 -0.796499 20.5014 14.4087 0 -1 0
64 4 3 0.046089 -0.168252 18.7254 11.9505 0 -1 0
65 4 3 0.046089 -1.71638 18.6955 12.7982 0 -1 0
66 4 4 0.121889 -1.82296 21.314 11.9199 0 -1 0
67 4 4 0.121889 -1.07641 21.4021 9.69623 0 -1 0
68 4 3 0.046089 -0.727679 18.5339 9.57258 0 -1 0
69 4 3 0.046089 0.923475 19.3525 9.82355 0 -1 0
70 4 3 0.033922 0.336027 20.8542 7.90378 0 -1 0
71 4 3 0.033922 0.420457 19.1741 7.39813 0 -1 0
72 4 3 0.033922 -1.15757 19.856 7.60802 0 -1 0
73 5 1 -0.091211 -0.517991 3.505 4.44885 0 0 0
74 5 1 -0.050311 -1.80389 2.88511 4.65479 0 0 0
75 5 2 -0.174311 40.9439 3.84961 4.4116 -1 0 0
76 5 2 -0.174311 40.4544 4.77448 5.37057 -1 0 0
77 5 1 -0.050311 41.0327 5.18772 6.73076 -1 0 0
78 5 1 -0.091211 -2.5882 6.69578 6.69021 0 0 0
79 5 3 0.033922 0.235212 2.73201 4.62714 0 0 0
80 5 3 0.033922 -0.358118 4.34668 5.12907 0 0 0
81 5 3 0.033922 -0.388471 3.8767 3.42818 0 0 0
82 5 3 0.046089 -1.75441 2.01039 3.99974 0 0 0
83 5 3 0.046089 -1.98745 2.59171 5.69254 0 0 0
84 5 4 0.121889 40.578 3.7594 3.39373 -1 0 0
85 5 4 0.121889 39.5322 5.23188 5.02645 -1 0 0
86 5 3 0.046089 -2.05781 4.5975 7.05097 0 0 0
87 5 3 0.046089 40.2423 5.02307 7.46896 -1 0 0
88 5 3 0.033922 40.793 7.28001 5.96414 -1 0 0
89 5 3 0.033922 41.3133 7.19245 7.66349 -1 0 0
90 5 3 0.033922 -1.53468 6.81125 6.41939 0 0 0
91 6 1 -0.091211 12.2587 6.81602 20.5275 0 0 0
92 6 1 -0.050311 12.4024 6.68614 2.06425 0 0 1
93 6 2 -0.174311 11.5233 5.56738 2.51707 0 0 1
94 6 2 -0.174311 11.3492 5.19884 3.85083 0 0 1
95 6 1 -0.050311 12.3015 5.71415 4.91267 0 0 1
96 6 1 -0.091211 12.8276 4.49253 5.85883 0 0 1
97 6 3 0.033922 11.2148 6.83923 20.2014 0 0 0
98 6 3 0.033922 12.8157 5.99342 20.0696 0 0 0
99 6 3 0.033922 12.7016 7.77175 20.2325 0 0 0
100 6 3 0.046089 13.4269 6.3621 2.26918 0 0 1
101 6 3 0.046089 12.1654 7.63846 2.54752 0 0 1
102 6 4 0.121889 10.8826 5.14253 1.75091 0 0 1
103 6 4 0.121889 10.6221 4.4169 4.04538 0 0 1
104 6 3 0.046089 11.8018 6.44117 5.55954 0 0 1
105 6 3 0.046089 13.1679 6.25195 4.51681 0 0 1
106 6 3 0.033922 13.5045 4.73552 6.68308 0 0 1
107 6 3 0.033922 11.9019 4.13668 6.32054 0 0 1
108 6 3 0.033922 13.2808 3.69545 5.2623 0 0 1
109 7 1 -0.091211 34.1902 19.466 2.28647 -1 0 0
110 7 1 -0.050311 33.7406 20.7814 1.59477 -1 0 0
111 7 2 -0.174311 34.4031 21.9301 2.24372 -1 0 0
112 7 2 -0.174311 34.0634 -0.909155 1.88508 -1 1 0
113 7 1 -0.050311 32.842 -0.534144 0.995498 -1 1 0
114 7 1 -0.091211 33.2573 0.481332 19.876 -1 1 -1
115 7 3 0.033922 34.096 19.5911 3.36915 -1 0 0
116 7 3 0.033922 35.2573 19.2677 2.14969 -1 0 0
117 7 3 0.033922 33.6052 18.5931 1.98268 -1 0 0
118 7 3 0.046089 34.0105 20.6085 0.548847 -1 0 0
119 7 3 0.046089 32.6544 20.8002 1.72321 -1 0 0
120 7 4 0.121889 35.1655 21.7121 2.98489 -1 0 0
121 7 4 0.121889 34.482 -0.0971392 2.47108 -1 1 0
122 7 3 0.046089 32.0905 -0.0803711 1.64815 -1 1 0
123 7 3 0.046089 32.4554 22.6868 20.4543 -1 0 -1
124 7 3 0.033922 33.9947 -0.0492573 19.2666 -1 1 -1
125 7 3 0.033922 32.4058 0.891355 19.3252 -1 1 -1
126 7 3 0.033922 33.7398 1.36931 20.2947 -1 1 -1
127 8 1 -0.091211 37.5017 6.48497 2.26624 -1 0 1
128 8 1 -0.050311 37.722 8.02784 2.31003 -1 0 1
129 8 2 -0.174311 38.3495 8.41808 3.61228 -1 0 1
130 8 2 -0.174311 39.5762 9.02965 3.79729 -1 0 1
131 8 1 -0.050311 40.5988 9.5842 2.77891 -1 0 1
132 8 1 -0.091211 41.2155 10.9031 3.28425 -1 0 1
133 8 3 0.033922 37.2313 6.06579 1.29267 -1 0 1
134 8 3 0.033922 36.6607 6.23153 2.91817 -1 0 1
135 8 3 0.033922 38.4142 5.96355 2.56969 -1 0 1
136 8 3 0.046089 38.3765 8.32445 1.48518 -1 0 1
137 8 3 0.046089 36.7723 8.54984 2.16148 -1 0 1
138 8 4 0.121889 37.7321 8.19133 4.47566 -1 0 1
139 8 4 0.121889 39.9474 9.18733 4.80498 -1 0 1
140 8 3 0.046089 40.2255 9.73125 1.76121 -1 0 1
141 8 3 0.046089 41.4448 8.89402 2.71101 -1 0 1
142 8 3 0.033922 -1.88229 11.2174 2.68024 0 0 1
143 8 3 0.033922 40.5088 11.738 3.27003 -1 0 1
144 8 3 0.033922 -2.3693 10.8523 4.31276 0 0 1
145 9 1 -0.091211 35.088 21.455 7.70936 -1 0 1
146 9 1 -0.050311 35.3745 21.2967 6.20545 -1 0 1
147 9 2 -0.174311 35.3383 22.683 5.59669 -1 0 1
148 9 2 -0.174311 36.253 -0.731367 4.96227 -1 1 1
149 9 1 -0.050311 37.6461 -1.16889 4.60138 -1 1 1
150 9 1 -0.091211 38.758 -0.520268 5.4465 -1 1 1
151 9 3 0.033922 35.9778 21.7754 8.25915 -1 0 1
152 9 3 0.033922 34.704 20.569 8.22335 -1 0 1
153 9 3 0.033922 34.3029 22.1917 7.90342 -1 0 1
154 9 3 0.046089 36.3106 20.7667 6.00657 -1 0 1
155 9 3 0.046089 34.5341 20.7126 5.81913 -1 0 1
156 9 4 0.121889 34.347 -0.990027 5.59706 -1 1 1
157 9 4 0.121889 35.9479 0.290125 4.75862 -1 1 1
158 9 3 0.046089 37.8408 -1.08599 3.5281 -1 1 1
159 9 3 0.046089 37.6814 21.8586 4.71423 -1 0 1
160 9 3 0.033922 38.4318 -0.636956 6.48415 -1 1 1
161 9 3 0.033922 39.7269 -1.01948 5.35418 -1 1 1
162 9 3 0.033922 38.8707 0.541678 5.20942 -1 1 1
163 10 1 -0.091211 4.56882 9.32275 4.86123 0 0 1
164 10 1 -0.050311 5.07584 8.83652 6.2322 0 0 1
165 10 2 -0.174311 6.56606 8.9197 6.40909 0 0 1
166 10 2 -0.174311 7.3732 8.71571 7.53641 0 0 1
167 10 1 -0.050311 6.88601 8.25278 8.84622 0 0 1
168 10 1 -0.091211 7.12669 9.25522 9.98305 0 0 1
169 10 3 0.033922 4.42682 10.4 4.73492 0 0 1
170 10 3 0.033922 3.65782 8.77269 4.60807 0 0 1
171 10 3 0.033922 5.33074 9.05125 4.12474 0 0 1
172 10 3 0.046089 4.56615 9.38788 7.02774 0 0 1
173 10 3 0.046089 4.76784 7.79462 6.35949 0 0 1
174 10 4 0.121889 7.11784 9.12315 5.49684 0 0 1
175 10 4 0.121889 8.45209 8.76904 7.43105 0 0 1
176 10 3 0.046089 7.35766 7.34457 9.23264 0 0 1
177 10 3 0.046089 5.81662 8.02616 8.80602 0 0 1
178 10 3 0.033922 8.19248 9.47584 9.87352 0 0 1
179 10 3 0.033922 6.633 10.217 9.816 0 0 1
180 10 3 0.033922 6.94181 8.87893 10.9935 0 0 1
181 11 1 -0.091211 -0.820852 14.8099 18.9363 0 0 0
182 11 1 -0.050311 -2.04288 15.1455 18.1759 0 0 0
183 11 2 -0.174311 41.3958 13.875 17.5519 -1 0 0
184 11 2 -0.174311 -2.26315 13.3513 16.3156 0 0 0
185 11 1 -0.050311 -1.25061 13.9105 15.3271 0 0 0
186 11 1 -0.091211 -2.10264 14.7219 14.3448 0 0 0
187 11 3 0.033922 -1.05353 14.3352 19.894 0 0 0
188 11 3 0.033922 -0.248534 15.7095 19.1806 0 0 0
189 11 3 0.033922 -0.0365407 14.2469 18.4219 0 0 0
190 11 3 0.046089 41.1285 15.606 18.7859 -1 0 0
191 11 3 0.046089 -1.82713 15.8622 17.3782 0 0 0
192 11 4 0.121889 40.7434 13.3856 18.268 -1 0 0
193 11 4 0.121889 41.0725 12.535 15.956 -1 0 0
194 11 3 0.046089 -0.57775 13.1474 14.9252 0 0 0
195 11 3 0.046089 -0.574851 14.5745 15.8741 0 0 0
196 11 3 0.033922 41.1772 15.3883 14.8907 -1 0 0
197 11 3 0.033922 -1.49332 15.3265 13.6666 0 0 0
198 11 3 0.033922 -2.58135 13.9653 13.7162 0 0 0
199 12 1 -0.091211 1.30987 10.265 7.13648 0 0 0
200 12 1 -0.050311 1.37098 8.78319 7.73428 0 0 0
201 12 2 -0.174311 1.7244 7.72704 6.68597 0 0 0
202 12 2 -0.174311 2.12196 6.47121 7.04868 0 0 0
203 12 1 -0.050311 2.35438 5.8031 8.39811 0 0 0
204 12 1 -0.091211 2.61257 4.40489 8.20837 0 0 0
205 12 3 0.033922 0.603022 10.37 6.30823 0 0 0
206 12 3 0.033922 2.30341 10.6083 6.83382 0 0 0
207 12 3 0.033922 1.14011 10.9437 7.97747 0 0 0
208 12 3 0.046089 2.13562 8.68445 8.51031 0 0 0
209 12 3 0.046089 0.43035 8.6064 8.26396 0 0 0
210 12 4 0.121889 1.62835 7.95891 5.62998 0 0 0
211 12 4 0.121889 2.35623 5.81799 6.21412 0 0 0
212 12 3 0.046089 1.50247 5.82703 9.08391 0 0 0
213 12 3 0.046089 3.18178 6.31957 8.89337 0 0 0
214 12 3 0.033922 1.76874 3.95228 7.67949 0 0 0
215 12 3 0.033922 3.54505 4.26136 7.65476 0 0 0
216 12 3 0.033922 2.76189 3.81268 9.11594 0 0 0
217 13 1 -0.091211 0.0428239 10.9522 19.9528 0 0 0
218 13 1 -0.050311 1.36547 10.9733 20.6762 0 0 0
219 13 2 -0.174311 1.13605 10.3807 2.07509 0 0 1
220 13 2 -0.174311 1.17147 11.0606 3.23278 0 0 1
221 13 1 -0.050311 1.29155 12.5531 3.53876 0 0 1
222 13 1 -0.091211 -0.0771466 13.2444 3.46663 0 0 1
223 13 3 0.033922 -0.692622 11.5616 20.486 0 0 0
224 13 3 0.033922 -0.382884 9.94566 19.9051 0 0 0
225 13 3 0.033922 0.276934 11.3421 18.9579 0 0 0
226 13 3 0.046089 2.1483 10.4113 20.1586 0 0 0
227 13 3 0.046089 1.73164 11.9986 0.825797 0 0 1
228 13 4 0.121889 0.657722 9.4064 2.07609 0 0 1
229 13 4 0.121889 0.861585 10.407 4.04201 0 0 1
230 13 3 0.046089 1.94848 13.0715 2.83419 0 0 1
231 13 3 0.046089 1.55652 12.7837 4.57476 0 0 1
232 13 3 0.033922 -0.517542 12.9518 2.50895 0 0 1
233 13 3 0.033922 -0.747884 12.9122 4.26439 0 0 1
234 13 3 0.033922 -0.0343869 14.335 3.53972 0 0 1
235 14 1 -0.091211 12.9284 8.42708 7.70943 0 0 0
236 14 1 -0.050311 13.0422 9.54017 8.70642 0 0 0
237 14 2 -0.174311 12.0543 9.39464 9.79595 0 0 0
238 14 2 -0.174311 11.4568 10.4883 10.3787 0 0 0
239 14 1 -0.050311 11.7533 11.9527 10.0564 0 0 0
240 14 1 -0.091211 10.704 12.7745 10.757 0 0 0
241 14 3 0.033922 12.0583 8.44196 7.04656 0 0 0
242 14 3 0.033922 12.9641 7.5381 8.34591 0 0 0
243 14 3 0.033922 13.8265 8.42141 7.08491 0 0 0
244 14 3 0.046089 14.0172 9.50602 9.2012 0 0 0
245 14 3 0.046089 12.9956 10.4796 8.14783 0 0 0
246 14 4 0.121889 11.8929 8.41767 10.2404 0 0 0
247 14 4 0.121889 10.7257 10.2949 11.1572 0 0 0
248 14 3 0.046089 11.7053 12.0517 8.96801 0 0 0
249 14 3 0.046089 12.7453 12.2622 10.398 0 0 0
250 14 3 0.033922 10.7928 13.8093 10.4135 0 0 0
251 14 3 0.033922 9.71778 12.4236 10.4394 0 0 0
252 14 3 0.033922 10.7619 12.7398 11.8488 0 0 0
253 15 1 -0.091211 0.231109 17.3088 1.70393 0 0 1
254 15 1 -0.050311 1.63252 16.7219 1.46197 0 0 1
255 15 2 -0.174311 2.76173 17.4443 2.16706 0 0 1
256 15 2 -0.174311 3.78467 18.0899 1.46077 0 0 1
257 15 1 -0.050311 3.67236 18.4254 19.9604 0 0 0
258 15 1 -0.091211 4.69027 19.5266 19.7042 0 0 0
259 15 3 0.033922 0.0374889 17.2169 2.77668 0 0 1
260 15 3 0.033922 -0.528817 16.678 1.23354 0 0 1
261 15 3 0.033922 0.104199 18.3036 1.26703 0 0 1
262 15 3 0.046089 1.66133 15.6695 1.75889 0 0 1
263 15 3 0.046089 1.81219 16.7279 20.3395 0 0 0
264 15 4 0.121889 2.8434 17.4678 3.24914 0 0 1
265 15 4 0.121889 4.65198 18.4838 1.98095 0 0 1
266 15 3 0.046089 2.63385 18.7185 19.781 0 0 0
267 15 3 0.046089 4.04386 17.6101 19.3327 0 0 0
268 15 3 0.033922 5.67971 19.0602 19.6971 0 0 0
269 15 3 0.033922 4.50686 20.0041 18.7372 0 0 0
270 15 3 0.033922 4.63025 20.3342 20.4398 0 0 0
271 16 1 -0.091211 6.18427 2.2755 10.3358 0 1 0
272 16 1 -0.050311 6.13794 2.25779 8.79758 0 1 0
273 16 2 -0.174311 7.22326 3.09163 8.2279 0 1 0
274 16 2 -0.174311 8.2559 2.58122 7.49926 0 1 0
275 16 1 -0.050311 8.3506 1.13372 7.06992 0 1 0
276 16 1 -0.091211 9.52434 0.932165 6.02074 0 1 0
277 16 3 0.033922 7.09218 1.71455 10.5758 0 1 0
278 16 3 0.033922 5.26614 1.91347 10.8076 0 1 0
279 16 3 0.033922 6.24724 3.30994 10.686 0 1 0
280 16 3 0.046089 6.23111 1.23097 8.43204 0 1 0
281 16 3 0.046089 5.18896 2.70772 8.49164 0 1 0
282 16 4 0.121889 7.28276 4.13727 8.51271 0 1 0
283 16 4 0.121889 9.10291 3.21527 7.25729 0 1 0
284 16 3 0.046089 7.41019 0.843474 6.59244 0 1 0
285 16 3 0.046089 8.58905 0.46222 7.89993 0 1 0
286 16 3 0.033922 10.4939 1.12445 6.48925 0 1 0
287 16 3 0.033922 9.58021 -0.0642205 5.57269 0 1 0
288 16 3 0.033922 9.37963 1.68192 5.23741 0 1 0
289 17 1 -0.091211 7.61359 11.8216 17.353 0 0 0
290 17 1 -0.050311 7.48186 11.4767 15.8951 0 0 0
291 17 2 -0.174311 6.39608 12.4205 15.3274 0 0 0
292 17 2 -0.174311 6.52404 13.3278 14.2538 0 0 0
293 17 1 -0.050311 7.83376 13.4828 13.4858 0 0 0
294 17 1 -0.091211 7.93785 14.6196 12.4758 0 0 0
295 17 3 0.033922 8.2649 11.1339 17.9002 0 0 0
296 17 3 0.033922 6.65897 11.625 17.8497 0 0 0
297 17 3 0.033922 7.87257 12.883 17.4092 0 0 0
298 17 3 0.046089 8.47705 11.629 15.4673 0 0 0
299 17 3 0.046089 7.26042 10.4141 15.7588 0 0 0
300 17 4 0.121889 5.45768 12.1874 15.8204 0 0 0
301 17 4 0.121889 5.6713 13.9522 14.0069 0 0 0
302 17 3 0.046089 7.87053 12.5757 12.8755 0 0 0
303 17 3 0.046089 8.66725 13.5547 14.1906 0 0 0
304 17 3 0.033922 6.98893 14.9019 12.0105 0 0 0
305 17 3 0.033922 8.34957 15.4565 13.0475 0 0 0
306 17 3 0.033922 8.58472 14.2467 11.6764 0 0 0
307 18 1 -0.091211 35.8299 11.2429 15.0219 -1 0 1
308 18 1 -0.050311 37.3041 10.7661 14.741 -1 0 1
309 18 2 -0.174311 37.9767 11.7189 13.6989 -1 0 1
310 18 2 -0.174311 38.0302 11.4343 12.4038 -1 0 1
311 18 1 -0.050311 37.2958 10.2967 11.7511 -1 0 1
312 18 1 -0.091211 37.877 10.1243 10.3538 -1 0 1
313 18 3 0.033922 35.4556 10.7758 15.9376 -1 0 1
314 18 3 0.033922 35.2474 10.9425 14.146 -1 0 1
315 18 3 0.033922 35.8116 12.3227 15.196 -1 0 1
316 18 3 0.046089 37.91 10.8589 15.647 -1 0 1
317 18 3 0.046089 37.3897 9.70524 14.4883 -1 0 1
318 18 4 0.121889 38.3103 12.6951 14.0361 -1 0 1
319 18 4 0.121889 38.6406 12.0621 11.7625 -1 0 1
320 18 3 0.046089 36.218 10.454 11.8524 -1 0 1
321 18 3 0.046089 37.4904 9.39889 12.3449 -1 0 1
322 18 3 0.033922 37.7195 11.0643 9.81692 -1 0 1
323 18 3 0.033922 38.9424 9.88589 10.4221 -1 0 1
324 18 3 0.033922 37.4521 9.30113 9.77187 -1 0 1
325 19 1 -0.091211 11.0578 9.94252 4.13771 0 0 0
326 19 1 -0.050311 11.4883 11.188 3.40272 0 0 0
327 19 2 -0.174311 12.4832 10.7464 2.38047 0 0 0
328 19 2 -0.174311 13.7208 11.3052 2.09406 0 0 0
329 19 1 -0.050311 14.3855 12.5247 2.70671 0 0 0
330 19 1 -0.091211 15.7845 12.8246 2.06689 0 0 0
331 19 3 0.033922 10.6488 10.1675 5.12705 0 0 0
332 19 3 0.033922 11.9376 9.31069 4.29071 0 0 0
333 19 3 0.033922 10.2986 9.46614 3.51053 0 0 0
334 19 3 0.046089 10.6085 11.6848 2.98348 0 0 0
335 19 3 0.046089 11.8725 11.8887 4.14976 0 0 0
336 19 4 0.121889 12.1777 9.96322 1.69399 0 0 0
337 19 4 0.121889 14.3208 10.9571 1.2593 0 0 0
338 19 3 0.046089 14.4592 12.4124 3.79238 0 0 0
339 19 3 0.046089 13.7511 13.4152 2.67292 0 0 0
340 19 3 0.033922 15.6697 13.0172 0.996161 0 0 0
341 19 3 0.033922 16.357 13.5539 2.64741 0 0 0
342 19 3 0.033922 16.3126 11.869 2.13467 0 0 0
343 20 1 -0.091211 10.978 0.0314233 11.0564 0 0 0
344 20 1 -0.050311 11.3588 -0.889805 9.89584 0 0 0
345 20 2 -0.174311 10.1925 22.3347 9.52944 0 -1 0
346 20 2 -0.174311 10.186 21.405 8.5572 0 -1 0
347 20 1 -0.050311 11.4802 20.8147 7.89697 0 -1 0
348 20 1 -0.091211 11.33 20.983 6.37461 0 -1 0
349 20 3 0.033922 10.6644 -0.572764 11.9128 0 0 0
350 20 3 0.033922 10.0907 0.617797 10.8005 0 0 0
351 20 3 0.033922 11.8539 0.66247 11.2329 0 0 0
352 20 3 0.046089 11.4993 -0.271688 9.00428 0 0 0
353 20 3 0.046089 12.2327 22.6352 10.1871 0 -1 0
354 20 4 0.121889 9.15755 22.5843 9.74064 0 -1 0
355 20 4 0.121889 9.27209 20.8874 8.28355 0 -1 0
356 20 3 0.046089 11.4926 19.7476 8.13759 0 -1 0
357 20 3 0.046089 12.3353 21.3758 8.28498 0 -1 0
358 20 3 0.033922 10.4218 20.5929 5.90597 0 -1 0
359 20 3 0.033922 11.3942 22.0599 6.19358 0 -1 0
360 20 3 0.033922 12.1984 20.5791 5.84605 0 -1 0
361 21 1 -0.091211 1.69316 21.2707 16.269 0 -1 0
362 21 1 -0.050311 2.15858 21.6058 17.6617 0 -1 0
363 21 2 -0.174311 1.71536 -1.12659 18.1031 0 0 0
364 21 2 -0.174311 1.70588 -0.645764 19.3791 0 0 0
365 21 1 -0.050311 2.04635 22.683 20.6448 0 -1 0
366 21 1 -0.091211 2.45073 -0.551362 1.88581 0 0 1
367 21 3 0.033922 0.608426 21.1385 16.2198 0 -1 0
368 21 3 0.033922 2.21183 20.3214 16.1065 0 -1 0
369 21 3 0.033922 1.95315 22.0461 15.5425 0 -1 0
370 21 3 0.046089 1.76137 20.8756 18.3728 0 -1 0
371 21 3 0.046089 3.24407 21.5086 17.5677 0 -1 0
372 21 4 0.121889 1.34944 -0.471404 17.319 0 0 0
373 21 4 0.121889 1.27602 0.348463 19.4481 0 0 0
374 21 3 0.046089 2.8461 21.9409 20.565 0 -1 0
375 21 3 0.046089 1.15449 22.0789 0.87876 0 -1 1
376 21 3 0.033922 1.73115 0.26702 1.98096 0 0 1
377 21 3 0.033922 2.55379 22.9683 2.79778 0 -1 1
378 21 3 0.033922 3.43461 -0.170775 1.59646 0 0 1
379 22 1 -0.091211 6.85815 19.1856 11.8073 0 -1 0
380 22 1 -0.050311 7.10706 20.6548 12.1942 0 -1 0
381 22 2 -0.174311 7.95445 20.5722 13.4231 0 -1 0
382 22 2 -0.174311 7.63814 21.1635 14.6607 0 -1 0
383 22 1 -0.050311 6.40241 21.9332 15.006 0 -1 0
384 22 1 -0.091211 6.55557 22.7693 16.3368 0 -1 0
385 22 3 0.033922 6.27387 19.1363 10.8838 0 -1 0
386 22 3 0.033922 6.30631 18.7003 12.6175 0 -1 0
387 22 3 0.033922 7.7675 18.622 11.5792 0 -1 0
388 22 3 0.046089 7.62836 21.1981 11.4006 0 -1 0
389 22 3 0.046089 6.18242 21.1972 12.4122 0 -1 0
390 22 4 0.121889 8.87541 20.0094 13.3087 0 -1 0
391 22 4 0.121889 8.41199 21.1556 15.4217 0 -1 0
392 22 3 0.046089 5.52873 21.2764 15.0497 0 -1 0
393 22 3 0.046089 6.1211 22.6228 14.2048 0 -1 0
394 22 3 0.033922 6.94768 22.0701 17.0811 0 -1 0
395 22 3 0.033922 7.25597 -0.51451 16.2137 0 0 0
396 22 3 0.033922 5.61632 -0.897278 16.6734 0 0 0
397 23 1 -0.091211 2.92697 4.64051 17.3282 0 0 -1
398 23 1 -0.050311 2.82682 4.0303 18.7217 0 0 -1
399 23 2 -0.174311 1.80141 4.70192 19.6763 0 0 -1
400 23 2 -0.174311 2.08774 5.57532 20.7116 0 0 -1
401 23 1 -0.050311 3.4248 5.88997 1.25589 0 0 0
402 23 1 -0.091211 3.50387 7.40669 1.54836 0 0 0
403 23 3 0.033922 3.81805 4.24884 16.829 0 0 -1
404 23 3 0.033922 3.01245 5.7306 17.3602 0 0 -1
405 23 3 0.033922 2.05763 4.40504 16.7074 0 0 -1
406 23 3 0.046089 2.5895 2.9628 18.6944 0 0 -1
407 23 3 0.046089 3.84896 4.18002 19.0815 0 0 -1
408 23 4 0.121889 0.773809 4.63385 19.3337 0 0 -1
409 23 4 0.121889 1.27796 6.03416 1.31325 0 0 0
410 23 3 0.046089 4.28802 5.58188 20.6154 0 0 -1
411 23 3 0.046089 3.57681 5.31261 2.17254 0 0 0
412 23 3 0.033922 2.67615 7.72845 2.18709 0 0 0
413 23 3 0.033922 4.4023 7.57851 2.14829 0 0 0
414 23 3 0.033922 3.49025 8.09797 0.700639 0 0 0
415 24 1 -0.091211 6.82833 12.2605 4.39245 0 0 0
416 24 1 -0.050311 5.76725 12.7384 3.46707 0 0 0
417 24 2 -0.174311 5.07032 14.0642 3.83814 0 0 0
418 24 2 -0.174311 5.46758 15.3433 3.45444 0 0 0
419 24 1 -0.050311 6.80847 15.495 2.7532 0 0 0
420 24 1 -0.091211 7.05717 16.8696 2.22245 0 0 0
421 24 3 0.033922 7.23212 11.3279 3.98758 0 0 0
422 24 3 0.033922 6.42394 12.1547 5.40339 0 0 0
423 24 3 0.033922 7.64269 12.9903 4.42062 0 0 0
424 24 3 0.046089 6.12264 12.772 2.43302 0 0 0
425 24 3 0.046089 4.9325 12.0361 3.54802 0 0 0
426 24 4 0.121889 4.14088 13.9994 4.39486 0 0 0
427 24 4 0.121889 4.8729 16.2458 3.55384 0 0 0
428 24 3 0.046089 6.76333 14.8908 1.84239 0 0 0
429 24 3 0.046089 7.59098 15.0995 3.40731 0 0 0
430 24 3 0.033922 6.34583 16.9508 1.39537 0 0 0
431 24 3 0.033922 6.90349 17.6608 2.96205 0 0 0
432 24 3 0.033922 8.05837 16.9153 1.78417 0 0 0
433 25 1 -0.091211 7.44401 4.57352 14.7798 0 0 0
434 25 1 -0.050311 6.58906 5.53459 15.5063 0 0 0
435 25 2 -0.174311 6.47198 6.88058 14.784 0 0 0
436 25 2 -0.174311 5.891 7.99434 15.3109 0 0 0
437 25 1 -0.050311 5.35594 7.99312 16.7633 0 0 0
438 25 1 -0.091211 3.82717 8.17572 16.738 0 0 0
439 25 3 0.033922 7.22794 4.37779 13.7254 0 0 0
440 25 3 0.033922 7.26994 3.6231 15.2927 0 0 0
441 25 3 0.033922 8.47794 4.92989 14.7562 0 0 0
442 25 3 0.046089 5.58207 5.11041 15.4552 0 0 0
443 25 3 0.046089 6.89036 5.67392 16.5487 0 0 0
444 25 4 0.121889 6.87667 7.02931 13.788 0 0 0
445 25 4 0.121889 6.07063 8.84846 14.6657 0 0 0
446 25 3 0.046089 5.91421 8.76167 17.3058 0 0 0
447 25 3 0.046089 5.5821 7.11553 17.376 0 0 0
448 25 3 0.033922 3.3559 7.46502 16.0528 0 0 0
449 25 3 0.033922 3.35524 8.09256 17.7214 0 0 0
450 25 3 0.033922 3.62487 9.18439 16.3661 0 0 0
451 26 1 -0.091211 4.47373 13.724 19.3694 0 -1 0
452 26 1 -0.050311 3.60756 14.0761 18.1745 0 -1 0
453 26 2 -0.174311 4.36083 15.0059 17.1922 0 -1 0
454 26 2 -0.174311 3.79883 16.0868 16.4451 0 -1 0
455 26 1 -0.050311 2.33026 16.561 16.6212 0 -1 0
456 26 1 -0.091211 1.77817 16.8395 15.2497 0 -1 0
457 26 3 0.033922 5.44747 13.3155 19.0838 0 -1 0
458 26 3 0.033922 3.99547 13.0356 20.0723 0 -1 0
459 26 3 0.033922 4.65756 14.6901 19.8485 0 -1 0
460 26 3 0.046089 3.16925 13.1793 17.7271 0 -1 0
461 26 3 0.046089 2.70538 14.6002 18.5031 0 -1 0
462 26 4 0.121889 5.34203 14.6778 16.8643 0 -1 0
463 26 4 0.121889 4.49495 16.5957 15.786 0 -1 0
464 26 3 0.046089 2.34615 17.4889 17.2005 0 -1 0
465 26 3 0.046089 1.77133 15.7178 17.0374 0 -1 0
466 26 3 0.033922 0.729176 17.0936 15.4274 0 -1 0
467 26 3 0.033922 2.34277 17.6554 14.7891 0 -1 0
468 26 3 0.033922 1.87061 15.9815 14.5774 0 -1 0
469 27 1 -0.091211 13.8439 14.0298 17.7499 0 0 -1
470 27 1 -0.050311 14.682 15.1934 18.1931 0 0 -1
471 27 2 -0.174311 16.0405 14.7455 18.6221 0 0 -1
472 27 2 -0.174311 16.8834 15.6317 19.2984 0 0 -1
473 27 1 -0.050311 16.6253 17.1742 19.49 0 0 -1
474 27 1 -0.091211 17.8168 17.8304 20.0378 0 0 -1
475 27 3 0.033922 12.9065 14.5471 17.5258 0 0 -1
476 27 3 0.033922 13.6468 13.1693 18.3959 0 0 -1
477 27 3 0.033922 14.2567 13.6516 16.81 0 0 -1
478 27 3 0.046089 14.7226 15.8587 17.3257 0 0 -1
479 27 3 0.046089 14.1724 15.6758 19.0323 0 0 -1
480 27 4 0.121889 16.3147 13.735 18.3362 0 0 -1
481 27 4 0.121889 17.8434 15.2817 19.6643 0 0 -1
482 27 3 0.046089 15.8106 17.3506 20.1983 0 0 -1
483 27 3 0.046089 16.3298 17.6163 18.5341 0 0 -1
484 27 3 0.033922 17.9813 17.5092 1.11389 0 0 0
485 27 3 0.033922 18.6568 17.5391 19.4005 0 0 -1
486 27 3 0.033922 17.7235 18.9042 20.2242 0 0 -1
487 28 1 -0.091211 9.93762 19.5514 18.9662 0 -1 -1
488 28 1 -0.050311 11.1451 19.4542 19.9 0 -1 -1
489 28 2 -0.174311 10.7797 19.696 1.38565 0 -1 0
490 28 2 -0.174311 11.7787 19.8819 2.34315 0 -1 0
491 28 1 -0.050311 13.2688 19.8577 1.99187 0 -1 0
492 28 1 -0.091211 13.8623 21.2067 2.47013 0 -1 0
493 28 3 0.033922 10.2719 19.5386 17.9246 0 -1 -1
494 28 3 0.033922 9.3378 20.4621 19.0523 0 -1 -1
495 28 3 0.033922 9.25887 18.7125 19.1456 0 -1 -1
496 28 3 0.046089 11.56 18.4423 19.875 0 -1 -1
497 28 3 0.046089 11.889 20.199 19.6025 0 -1 -1
498 28 4 0.121889 9.73728 19.6324 1.68098 0 -1 0
499 28 4 0.121889 11.5813 19.9566 3.40785 0 -1 0
500 28 3 0.046089 13.456 19.7646 0.918103 0 -1 0
501 28 3 0.046089 13.7984 18.9726 2.35634 0 -1 0
502 28 3 0.033922 14.841 21.3008 1.99073 0 -1 0
503 28 3 0.033922 13.3084 22.094 2.14974 0 -1 0
504 28 3 0.033922 13.8803 21.2752 3.56178 0 -1 0
505 29 1 -0.091211 8.21847 6.83459 3.05507 0 0 0
506 29 1 -0.050311 7.62228 5.68416 3.87294 0 0 0
507 29 2 -0.174311 6.6635 4.8207 3.05906 0 0 0
508 29 2 -0.174311 5.74022 3.78634 3.47288 0 0 0
509 29 1 -0.050311 5.71057 3.31514 4.91945 0 0 0
510 29 1 -0.091211 4.68478 2.25764 4.98812 0 0 0
511 29 3 0.033922 7.45052 7.4949 2.64173 0 0 0
512 29 3 0.033922 8.84148 6.35943 2.2917 0 0 0
513 29 3 0.033922 8.88444 7.40222 3.71152 0 0 0
514 29 3 0.046089 8.34864 4.97992 4.28894 0 0 0
515 29 3 0.046089 7.07404 6.05935 4.74205 0 0 0
516 29 4 0.121889 6.63887 5.02678 1.99368 0 0 0
517 29 4 0.121889 5.09631 3.32244 2.73246 0 0 0
518 29 3 0.046089 5.4771 4.09284 5.6525 0 0 0
519 29 3 0.046089 6.67749 2.9202 5.24452 0 0 0
520 29 3 0.033922 3.68744 2.67099 4.81193 0 0 0
521 29 3 0.033922 4.81665 1.40645 4.31377 0 0 0
522 29 3 0.033922 4.67092 1.86399 6.00868 0 0 0
523 30 1 -0.091211 2.22724 -0.468608 6.01655 0 1 1
524 30 1 -0.050311 2.92075 22.6141 6.88543 0 0 1
525 30 2 -0.174311 4.29976 -1.05113 7.30788 0 1 1
526 30 2 -0.174311 4.90701 -1.3278 8.54657 0 1 1
527 30 1 -0.050311 4.36235 22.0829 9.69776 0 0 1
528 30 1 -0.091211 3.56229 -1.14501 10.6505 0 1 1
529 30 3 0.033922 2.44368 -0.5938 4.95157 0 1 1
530 30 3 0.033922 2.49792 0.529008 6.37452 0 1 1
531 30 3 0.033922 1.14561 -0.58615 6.12975 0 1 1
532 30 3 0.046089 2.3063 22.4538 7.77616 0 0 1
533 30 3 0.046089 3.08853 21.6418 6.4131 0 0 1
534 30 4 0.121889 4.76879 -0.413519 6.56524 0 1 1
535 30 4 0.121889 5.88214 -0.890981 8.73702 0 1 1
536 30 3 0.046089 5.22309 21.7183 10.2659 0 0 1
537 30 3 0.046089 3.6804 21.2989 9.35586 0 0 1
538 30 3 0.033922 2.99069 22.2947 11.2939 0 0 1
539 30 3 0.033922 4.16223 -0.469003 11.2668 0 1 1
540 30 3 0.033922 2.79595 -0.612458 10.0798 0 1 1
541 31 1 -0.091211 21.1168 2.11972 18.2727 0 1 0
542 31 1 -0.050311 21.5118 3.52612 17.6429 0 1 0
543 31 2 -0.174311 20.7233 3.82884 16.4211 0 1 0
544 31 2 -0.174311 21.1821 3.87442 15.1273 0 1 0
545 31 1 -0.050311 22.627 3.9258 14.6902 0 1 0
546 31 1 -0.091211 22.7 4.12994 13.1371 0 1 0
547 31 3 0.033922 20.0469 2.03206 18.4832 0 1 0
548 31 3 0.033922 21.6586 2.01402 19.2171 0 1 0
549 31 3 0.033922 21.4992 1.35902 17.5859 0 1 0
550 31 3 0.046089 21.2427 4.3357 18.3276 0 1 0
551 31 3 0.046089 22.5823 3.65491 17.4585 0 1 0
552 31 4 0.121889 19.6496 3.90737 16.5587 0 1 0
553 31 4 0.121889 20.3469 4.03481 14.453 0 1 0
554 31 3 0.046089 23.1208 3.04292 15.1066 0 1 0
555 31 3 0.046089 23.1238 4.77105 15.1754 0 1 0
556 31 3 0.033922 21.9551 3.49331 12.6509 0 1 0
557 31 3 0.033922 22.479 5.15188 12.8155 0 1 0
558 31 3 0.033922 23.7207 3.92074 12.8038 0 1 0
559 32 1 -0.091211 15.5485 -0.386256 10.4999 0 1 0
560 32 1 -0.050311 15.1856 0.513893 9.32627 0 1 0
561 32 2 -0.174311 15.7152 -0.174649 8.03793 0 1 0
562 32 2 -0.174311 15.0125 -0.129281 6.80826 0 1 0
563 32 1 -0.050311 13.697 0.620663 6.54777 0 1 0
564 32 1 -0.091211 13.7113 1.02927 5.05458 0 1 0
565 32 3 0.033922 14.9844 -0.0699156 11.3822 0 1 0
566 32 3 0.033922 16.5843 -0.236142 10.818 0 1 0
567 32 3 0.033922 15.3906 22.6674 10.287 0 0 0
568 32 3 0.046089 14.1058 0.688497 9.33542 0 1 0
569 32 3 0.046089 15.6751 1.4765 9.5008 0 1 0
570 32 4 0.121889 16.6479 -0.72118 8.13443 0 1 0
571 32 4 0.121889 15.5266 -0.508317 5.93073 0 1 0
572 32 3 0.046089 13.6595 1.50848 7.18577 0 1 0
573 32 3 0.046089 12.8805 -0.0560582 6.81609 0 1 0
574 32 3 0.033922 12.8495 1.61673 4.72462 0 1 0
575 32 3 0.033922 14.6068 1.59147 4.77432 0 1 0
576 32 3 0.033922 13.7096 0.131559 4.42945 0 1 0
577 33 1 -0.091211 17.3033 5.61426 14.9895 0 0 0
578 33 1 -0.050311 16.7309 6.83852 14.4345 0 0 0
579 33 2 -0.174311 15.8885 7.5295 15.4538 0 0 0
580 33 2 -0.174311 14.9384 8.44235 15.0507 0 0 0
581 33 1 -0.050311 14.6366 8.87208 13.6196 0 0 0
582 33 1 -0.091211 14.2933 10.3328 13.6694 0 0 0
583 33 3 0.033922 16.4839 4.94537 15.2685 0 0 0
584 33 3 0.033922 17.9269 5.79232 15.8705 0 0 0
585 33 3 0.033922 17.8594 5.13154 14.1806 0 0 0
586 33 3 0.046089 17.5048 7.54962 14.1311 0 0 0
587 33 3 0.046089 16.0692 6.63309 13.588 0 0 0
588 33 4 0.121889 16.09 7.36324 16.5073 0 0 0
589 33 4 0.121889 14.571 8.97212 15.9239 0 0 0
590 33 3 0.046089 13.7275 8.32375 13.3561 0 0 0
591 33 3 0.046089 15.4213 8.51178 12.948 0 0 0
592 33 3 0.033922 13.2513 10.4092 13.9934 0 0 0
593 33 3 0.033922 14.8423 10.9035 14.4241 0 0 0
594 33 3 0.033922 14.4165 10.794 12.6852 0 0 0
595 34 1 -0.091211 18.952 20.2813 4.68166 0 0 0
596 34 1 -0.050311 17.5553 20.9244 4.70894 0 0 0
597 34 2 -0.174311 16.4962 19.8128 4.93449 0 0 0
598 34 2 -0.174311 15.8945 19.5594 6.13927 0 0 0
599 34 1 -0.050311 16.1644 20.2779 7.42988 0 0 0
600 34 1 -0.091211 15.3195 19.7076 8.59318 0 0 0
601 34 3 0.033922 19.3035 20.0694 5.69567 0 0 0
602 34 3 0.033922 19.6466 21.0627 4.35983 0 0 0
603 34 3 0.033922 18.9713 19.4695 3.94866 0 0 0
604 34 3 0.046089 17.5498 21.7026 5.47782 0 0 0
605 34 3 0.046089 17.3998 21.2869 3.68856 0 0 0
606 34 4 0.121889 16.2632 19.2249 4.05236 0 0 0
607 34 4 0.121889 15.2799 18.6665 6.19566 0 0 0
608 34 3 0.046089 16.0383 21.3592 7.32204 0 0 0
609 34 3 0.046089 17.2206 20.1202 7.66681 0 0 0
610 34 3 0.033922 14.2566 19.9438 8.48781 0 0 0
611 34 3 0.033922 15.5007 18.6316 8.67072 0 0 0
612 34 3 0.033922 15.6048 20.1608 9.54704 0 0 0
613 35 1 -0.091211 36.3209 10.9195 20.3111 -1 0 0
614 35 1 -0.050311 36.5126 9.96653 19.0464 -1 0 0
615 35 2 -0.174311 37.8606 10.0393 18.5135 -1 0 0
616 35 2 -0.174311 38.3393 9.13177 17.6464 -1 0 0