ITEM: TIMESTEP
50100
ITEM: NUMBER OF ATOMS
1800
ITEM: BOX BOUNDS pp pp pp
-3.1398060375242807e+00 4.1947821537523438e+01
-1.5597778793525183e+00 2.3168433379352898e+01
7.4617253672229111e-01 2.0507560963277559e+01
ITEM: ATOMS id mol type q x y z ix iy iz
1 1 1 -0.091211 1.2184 18.379 11.827 0 -1 0
2 1 1 -0.050311 2.62998 18.1517 12.3307 0 -1 0
3 1 2 -0.174311 3.17479 19.4835 12.6859 0 -1 0
4 1 2 -0.174311 3.95855 20.3134 11.9078 0 -1 0
5 1 1 -0.050311 4.43193 20.0454 10.4867 0 -1 0
6 1 1 -0.091211 3.42458 20.5029 9.43057 0 -1 0
7 1 3 0.033922 0.575149 18.7043 12.6498 0 -1 0
8 1 3 0.033922 0.875126 17.3709 11.5773 0 -1 0
9 1 3 0.033922 1.23904 19.0635 10.974 0 -1 0
10 1 3 0.046089 2.6478 17.4561 13.1747 0 -1 0
11 1 3 0.046089 3.3028 17.7335 11.5764 0 -1 0
12 1 4 0.121889 2.88246 19.8157 13.6769 0 -1 0
13 1 4 0.121889 4.17217 21.3166 12.2628 0 -1 0
14 1 3 0.046089 4.67408 18.9798 10.4384 0 -1 0
15 1 3 0.046089 5.34256 20.6446 10.3948 0 -1 0
16 1 3 0.033922 3.47495 21.5934 9.36185 0 -1 0
17 1 3 0.033922 3.67535 20.1709 8.41895 0 -1 0
18 1 3 0.033922 2.44434 20.0639 9.63805 0 -1 0
19 2 1 -0.091211 14.0656 2.62273 15.7292 0 0 0
20 2 1 -0.050311 13.4701 3.52838 14.676 0 0 0
21 2 2 -0.174311 12.2187 2.95024 14.0276 0 0 0
22 2 2 -0.174311 12.0303 2.1133 12.9367 0 0 0
23 2 1 -0.050311 13.1258 1.78481 12.0605 0 0 0
24 2 1 -0.091211 13.5139 0.275348 12.2922 0 0 0
25 2 3 0.033922 14.1394 1.60555 15.3337 0 0 0
26 2 3 0.033922 13.3416 2.66589 16.5481 0 0 0
27 2 3 0.033922 15.0483 2.9851 16.0449 0 0 0
28 2 3 0.046089 13.1891 4.48078 15.1348 0 0 0
29 2 3 0.046089 14.3034 3.68347 13.9845 0 0 0
30 2 4 0.121889 11.2858 3.1785 14.5333 0 0 0
31 2 4 0.121889 11.0726 1.6627 12.6965 0 0 0
32 2 3 0.046089 14.0115 2.35056 12.3639 0 0 0
33 2 3 0.046089 12.8367 1.9909 11.0259 0 0 0
34 2 3 0.033922 14.408 0.133157 11.6783 0 0 0
35 2 3 0.033922 13.7188 0.0632344 13.3456 0 0 0
36 2 3 0.033922 12.6949 -0.355684 11.935 0 0 0
37 3 1 -0.091211 4.10926 4.8214 9.65145 0 0 0
38 3 1 -0.050311 4.31032 4.27033 11.0389 0 0 0
39 3 2 -0.174311 4.02845 5.34066 12.0452 0 0 0
40 3 2 -0.174311 4.12882 5.13637 13.3588 0 0 0
41 3 1 -0.050311 4.44488 3.78947 14.0494 0 0 0
42 3 1 -0.091211 4.43096 3.99015 15.5415 0 0 0
43 3 3 0.033922 3.08108 5.18132 9.55178 0 0 0
44 3 3 0.033922 4.176 4.03903 8.88991 0 0 0
45 3 3 0.033922 4.93656 5.51843 9.48917 0 0 0
46 3 3 0.046089 3.54816 3.51442 11.2494 0 0 0
47 3 3 0.046089 5.29268 3.82386 11.2185 0 0 0
48 3 4 0.121889 3.7762 6.35065 11.7382 0 0 0
49 3 4 0.121889 3.97833 5.97488 14.0312 0 0 0
50 3 3 0.046089 5.41884 3.41704 13.7187 0 0 0
51 3 3 0.046089 3.6398 3.08209 13.8301 0 0 0
52 3 3 0.033922 4.63799 3.0642 16.0858 0 0 0
53 3 3 0.033922 5.16108 4.70186 15.9378 0 0 0
54 3 3 0.033922 3.48248 4.41862 15.8783 0 0 0
55 4 1 -0.091211 -1.14765 2.94547 9.44145 0 0 0
56 4 1 -0.050311 -1.00704 1.70925 8.62494 0 0 0
57 4 2 -0.174311 0.106557 1.79211 7.55175 0 0 0
58 4 2 -0.174311 0.586882 0.613945 6.97393 0 0 0
59 4 1 -0.050311 -0.0379886 -0.723142 7.24846 0 0 0
60 4 1 -0.091211 0.555843 23.0043 6.22181 0 -1 0
61 4 3 0.033922 -2.04048 2.89872 10.0717 0 0 0
62 4 3 0.033922 -1.20977 3.78862 8.74737 0 0 0
63 4 3 0.033922 -0.200258 3.12197 9.95905 0 0 0
64 4 3 0.046089 -0.755997 0.907188 9.32508 0 0 0
65 4 3 0.046089 -1.98682 1.47169 8.2004 0 0 0
66 4 4 0.121889 0.664 2.66329 7.22272 0 0 0
67 4 4 0.121889 1.52549 0.692649 6.43466 0 0 0
68 4 3 0.046089 -1.09869 -0.492705 7.11255 0 0 0
69 4 3 0.046089 0.337317 -0.942469 8.25223 0 0 0
70 4 3 0.033922 1.60929 22.9346 6.50823 0 -1 0
71 4 3 0.033922 0.160879 22.0007 6.40445 0 -1 0
72 4 3 0.033922 0.398337 -1.3381 5.21045 0 0 0
73 5 1 -0.091211 -2.32689 7.0209 3.04775 0 0 0
74 5 1 -0.050311 -2.36827 5.82618 3.9387 0 0 0
75 5 2 -0.174311 41.3532 5.24859 4.19459 -1 0 0
76 5 2 -0.174311 40.7159 5.43915 5.41408 -1 0 0
77 5 1 -0.050311 41.3482 6.2338 6.52377 -1 0 0
78 5 1 -0.091211 40.358 6.40621 7.68074 -1 0 0
79 5 3 0.033922 -1.3162 7.42736 3.1475 0 0 0
80 5 3 0.033922 -3.00078 7.78587 3.44433 0 0 0
81 5 3 0.033922 -2.45589 6.74705 1.99663 0 0 0
82 5 3 0.046089 -1.69162 5.10437 3.47211 0 0 0
83 5 3 0.046089 -1.84005 6.10242 4.85588 0 0 0
84 5 4 0.121889 40.8649 4.69553 3.39861 -1 0 0
85 5 4 0.121889 39.7225 5.01713 5.52833 -1 0 0
86 5 3 0.046089 41.6361 7.22797 6.16984 -1 0 0
87 5 3 0.046089 -2.88747 5.73428 6.9941 0 0 0
88 5 3 0.033922 40.8474 6.88408 8.5343 -1 0 0
89 5 3 0.033922 39.5771 7.01792 7.21952 -1 0 0
90 5 3 0.033922 39.9215 5.46195 8.01911 -1 0 0
91 6 1 -0.091211 8.87568 3.3141 18.452 0 0 0
92 6 1 -0.050311 9.67726 3.6402 17.165 0 0 0
93 6 2 -0.174311 10.3903 4.96987 17.3699 0 0 0
94 6 2 -0.174311 9.85293 6.16439 17.0287 0 0 0
95 6 1 -0.050311 8.38704 6.36305 16.5471 0 0 0
96 6 1 -0.091211 8.27467 6.37231 15.0714 0 0 0
97 6 3 0.033922 8.4208 4.23487 18.8286 0 0 0
98 6 3 0.033922 9.555 2.89399 19.1993 0 0 0
99 6 3 0.033922 8.16738 2.52529 18.1824 0 0 0
100 6 3 0.046089 10.4276 2.8719 16.9571 0 0 0
101 6 3 0.046089 8.98407 3.75069 16.3261 0 0 0
102 6 4 0.121889 11.3877 4.97614 17.7979 0 0 0
103 6 4 0.121889 10.4527 7.04946 17.2153 0 0 0
104 6 3 0.046089 8.03961 7.26111 17.066 0 0 0
105 6 3 0.046089 7.75529 5.56523 16.9483 0 0 0
106 6 3 0.033922 7.33762 6.10848 14.5724 0 0 0
107 6 3 0.033922 8.58411 7.37812 14.7728 0 0 0
108 6 3 0.033922 9.0979 5.77533 14.6682 0 0 0
109 7 1 -0.091211 40.2194 18.8041 2.20641 -1 0 0
110 7 1 -0.050311 39.2041 19.5119 1.27923 -1 0 0
111 7 2 -0.174311 38.8045 18.5662 19.8671 -1 0 -1
112 7 2 -0.174311 37.5149 18.6155 19.3451 -1 0 -1
113 7 1 -0.050311 36.462 19.7125 19.4441 -1 0 -1
114 7 1 -0.091211 35.0653 19.194 19.275 -1 0 -1
115 7 3 0.033922 41.1963 18.8265 1.71471 -1 0 0
116 7 3 0.033922 39.9266 17.7789 2.45067 -1 0 0
117 7 3 0.033922 40.4363 19.3896 3.10457 -1 0 0
118 7 3 0.046089 38.3363 19.835 1.86161 -1 0 0
119 7 3 0.046089 39.727 20.3384 0.789313 -1 0 0
120 7 4 0.121889 39.4594 17.7089 19.7485 -1 0 -1
121 7 4 0.121889 37.2895 17.8598 18.5994 -1 0 -1
122 7 3 0.046089 36.7199 20.6092 18.8733 -1 0 -1
123 7 3 0.046089 36.4336 20.063 20.4798 -1 0 -1
124 7 3 0.033922 34.964 18.4499 18.4797 -1 0 -1
125 7 3 0.033922 34.7172 18.8045 20.2361 -1 0 -1
126 7 3 0.033922 34.4434 20.0643 19.0459 -1 0 -1
127 8 1 -0.091211 -1.8081 8.81008 19.6864 0 0 0
128 8 1 -0.050311 -0.443797 8.07177 19.7428 0 0 0
129 8 2 -0.174311 0.590497 8.92545 19.0452 0 0 0
130 8 2 -0.174311 1.1358 8.75692 17.7632 0 0 0
131 8 1 -0.050311 0.843364 7.53145 16.9291 0 0 0
132 8 1 -0.091211 1.91986 7.41792 15.8 0 0 0
133 8 3 0.033922 -2.60348 8.2675 20.2056 0 0 0
134 8 3 0.033922 -2.22177 8.97734 18.6877 0 0 0
135 8 3 0.033922 -1.7513 9.80951 20.1274 0 0 0
136 8 3 0.046089 -0.152756 7.88763 1.01958 0 0 1
137 8 3 0.046089 -0.686496 7.139 19.2255 0 0 0
138 8 4 0.121889 1.00661 9.7637 19.5949 0 0 0
139 8 4 0.121889 2.00609 9.3398 17.4789 0 0 0
140 8 3 0.046089 -0.127456 7.67316 16.4453 0 0 0
141 8 3 0.046089 0.810812 6.67132 17.6041 0 0 0
142 8 3 0.033922 1.73543 6.55991 15.1471 0 0 0
143 8 3 0.033922 1.95597 8.33668 15.2075 0 0 0
144 8 3 0.033922 2.91507 7.296 16.2374 0 0 0
145 9 1 -0.091211 38.4737 15.172 5.14637 -1 0 1
146 9 1 -0.050311 38.4195 14.8207 6.66806 -1 0 1
147 9 2 -0.174311 38.535 13.3052 6.84847 -1 0 1
148 9 2 -0.174311 38.6798 12.6515 8.04354 -1 0 1
149 9 1 -0.050311 38.7994 13.2446 9.41485 -1 0 1
150 9 1 -0.091211 40.1825 13.5156 9.87725 -1 0 1
151 9 3 0.033922 39.4406 15.0265 4.65578 -1 0 1
152 9 3 0.033922 38.0619 16.1625 4.93237 -1 0 1
153 9 3 0.033922 37.7375 14.4956 4.70254 -1 0 1
154 9 3 0.046089 39.2055 15.2958 7.26243 -1 0 1
155 9 3 0.046089 37.5075 15.2166 7.12427 -1 0 1
156 9 4 0.121889 38.5364 12.6736 5.9659 -1 0 1
157 9 4 0.121889 38.6644 11.5669 8.00824 -1 0 1
158 9 3 0.046089 38.3143 12.6123 10.1641 -1 0 1
159 9 3 0.046089 38.2164 14.1643 9.51877 -1 0 1
160 9 3 0.033922 40.5868 14.173 9.10215 -1 0 1
161 9 3 0.033922 40.2431 14.0434 10.8334 -1 0 1
162 9 3 0.033922 40.691 12.5475 9.84759 -1 0 1
163 10 1 -0.091211 10.2646 9.0228 8.82523 0 0 1
164 10 1 -0.050311 9.22947 8.71982 7.70682 0 0 1
165 10 2 -0.174311 8.11179 9.65075 7.60912 0 0 1
166 10 2 -0.174311 6.94933 9.29452 6.99164 0 0 1
167 10 1 -0.050311 6.65772 7.99838 6.26711 0 0 1
168 10 1 -0.091211 6.0249 6.83856 7.01732 0 0 1
169 10 3 0.033922 11.0093 9.77898 8.56013 0 0 1
170 10 3 0.033922 10.7912 8.12374 9.15839 0 0 1
171 10 3 0.033922 9.6044 9.39928 9.61194 0 0 1
172 10 3 0.046089 9.73365 8.74431 6.7364 0 0 1
173 10 3 0.046089 8.79308 7.71849 7.76572 0 0 1
174 10 4 0.121889 8.25715 10.6813 7.91711 0 0 1
175 10 4 0.121889 6.11851 9.98689 6.90019 0 0 1
176 10 3 0.046089 7.61579 7.6868 5.8409 0 0 1
177 10 3 0.046089 6.01796 8.2357 5.41217 0 0 1
178 10 3 0.033922 6.84262 6.27009 7.46984 0 0 1
179 10 3 0.033922 5.36232 7.10727 7.84517 0 0 1
180 10 3 0.033922 5.42547 6.2372 6.32769 0 0 1
181 11 1 -0.091211 39.0052 15.7678 14.6379 -1 0 0
182 11 1 -0.050311 40.1446 14.7782 14.5789 -1 0 0
183 11 2 -0.174311 41.4347 15.1785 15.2889 -1 0 0
184 11 2 -0.174311 -2.3974 14.9156 14.7311 0 0 0
185 11 1 -0.050311 -2.0586 14.1854 13.5033 0 0 0
186 11 1 -0.091211 -1.39501 15.0817 12.4609 0 0 0
187 11 3 0.033922 38.7829 15.8883 15.7021 -1 0 0
188 11 3 0.033922 38.12 15.4242 14.0947 -1 0 0
189 11 3 0.033922 39.2904 16.697 14.136 -1 0 0
190 11 3 0.046089 39.7912 13.8612 15.0593 -1 0 0
191 11 3 0.046089 40.3455 14.4556 13.5532 -1 0 0
192 11 4 0.121889 41.4532 15.8158 16.1671 -1 0 0
193 11 4 0.121889 -1.53749 15.3233 15.253 0 0 0
194 11 3 0.046089 -2.948 13.7123 13.077 0 0 0
195 11 3 0.046089 -1.34287 13.3717 13.6524 0 0 0
196 11 3 0.033922 -0.51326 15.5547 12.903 0 0 0
197 11 3 0.033922 -1.11469 14.424 11.633 0 0 0
198 11 3 0.033922 -2.09746 15.8723 12.1814 0 0 0
199 12 1 -0.091211 0.950121 12.9984 6.8871 0 0 0
200 12 1 -0.050311 2.01096 12.9199 8.03218 0 0 0
201 12 2 -0.174311 1.72798 14.0309 9.00607 0 0 0
202 12 2 -0.174311 2.442 15.167 9.23374 0 0 0
203 12 1 -0.050311 3.6063 15.6161 8.36112 0 0 0
204 12 1 -0.091211 4.86238 15.5859 9.25117 0 0 0
205 12 3 0.033922 1.02773 14.0105 6.47938 0 0 0
206 12 3 0.033922 -0.0734916 12.9076 7.26208 0 0 0
207 12 3 0.033922 1.20595 12.2301 6.15174 0 0 0
208 12 3 0.046089 1.78127 11.9434 8.46828 0 0 0
209 12 3 0.046089 3.00021 12.9014 7.56565 0 0 0
210 12 4 0.121889 0.921019 13.8067 9.69637 0 0 0
211 12 4 0.121889 2.1554 15.885 9.99544 0 0 0
212 12 3 0.046089 3.42843 16.6385 8.01536 0 0 0
213 12 3 0.046089 3.87354 15.0014 7.49668 0 0 0
214 12 3 0.033922 5.08139 14.5679 9.58633 0 0 0
215 12 3 0.033922 5.79817 15.8613 8.75614 0 0 0
216 12 3 0.033922 4.74653 16.1968 10.1511 0 0 0
217 13 1 -0.091211 1.38286 11.5969 12.1089 0 0 0
218 13 1 -0.050311 1.68737 12.7255 13.038 0 0 0
219 13 2 -0.174311 1.36644 12.3224 14.3937 0 0 0
220 13 2 -0.174311 1.29824 13.1688 15.4747 0 0 0
221 13 1 -0.050311 1.68702 14.5961 15.479 0 0 0
222 13 1 -0.091211 2.48215 14.9532 16.7347 0 0 0
223 13 3 0.033922 0.354289 11.2245 12.1067 0 0 0
224 13 3 0.033922 1.97184 10.7128 12.3698 0 0 0
225 13 3 0.033922 1.65734 11.9242 11.102 0 0 0
226 13 3 0.046089 2.77376 12.8438 13.0873 0 0 0
227 13 3 0.046089 1.25175 13.686 12.7477 0 0 0
228 13 4 0.121889 1.15501 11.2811 14.6149 0 0 0
229 13 4 0.121889 1.03891 12.6481 16.3909 0 0 0
230 13 3 0.046089 0.726813 15.1201 15.4866 0 0 0
231 13 3 0.046089 2.25401 14.8373 14.5752 0 0 0
232 13 3 0.033922 2.04659 14.6272 17.6836 0 0 0
233 13 3 0.033922 3.42484 14.4014 16.6756 0 0 0
234 13 3 0.033922 2.57201 16.0428 16.6972 0 0 0
235 14 1 -0.091211 14.6638 9.9553 7.88305 0 0 0
236 14 1 -0.050311 15.8233 9.75684 8.8922 0 0 0
237 14 2 -0.174311 15.376 10.4179 10.2135 0 0 0
238 14 2 -0.174311 14.6949 9.73154 11.184 0 0 0
239 14 1 -0.050311 14.2047 8.33544 11.1474 0 0 0
240 14 1 -0.091211 15.4427 7.51201 11.5195 0 0 0
241 14 3 0.033922 14.2514 10.967 7.93841 0 0 0
242 14 3 0.033922 13.7822 9.34846 8.10933 0 0 0
243 14 3 0.033922 15.0443 9.74247 6.87988 0 0 0
244 14 3 0.046089 16.0335 8.69473 9.04801 0 0 0
245 14 3 0.046089 16.7136 10.237 8.4758 0 0 0
246 14 4 0.121889 15.6711 11.4503 10.3716 0 0 0
247 14 4 0.121889 14.5094 10.2494 12.1196 0 0 0
248 14 3 0.046089 13.9007 8.10865 10.1214 0 0 0
249 14 3 0.046089 13.3549 8.06982 11.7829 0 0 0
250 14 3 0.033922 15.204 6.47004 11.2874 0 0 0
251 14 3 0.033922 16.3609 7.85952 11.0371 0 0 0
252 14 3 0.033922 15.5235 7.54837 12.6098 0 0 0
253 15 1 -0.091211 -0.550183 18.4145 16.2076 0 0 0
254 15 1 -0.050311 0.532327 18.1851 17.2928 0 0 0
255 15 2 -0.174311 1.89864 18.5912 16.8576 0 0 0
256 15 2 -0.174311 3.01672 18.7289 17.6331 0 0 0
257 15 1 -0.050311 3.05827 18.3293 19.0985 0 0 0
258 15 1 -0.091211 4.1754 17.3377 19.4348 0 0 0
259 15 3 0.033922 -0.311034 19.3254 15.6511 0 0 0
260 15 3 0.033922 -1.51941 18.5658 16.6917 0 0 0
261 15 3 0.033922 -0.577118 17.5261 15.57 0 0 0
262 15 3 0.046089 0.347217 18.7998 18.1785 0 0 0
263 15 3 0.046089 0.574027 17.1242 17.5559 0 0 0
264 15 4 0.121889 1.97749 19.1184 15.9122 0 0 0
265 15 4 0.121889 3.95857 19.1642 17.3146 0 0 0
266 15 3 0.046089 2.08371 18.0218 19.4887 0 0 0
267 15 3 0.046089 3.28296 19.2488 19.6467 0 0 0
268 15 3 0.033922 5.1344 17.8279 19.2434 0 0 0
269 15 3 0.033922 4.11887 16.9887 0.708556 0 0 1
270 15 3 0.033922 4.13492 16.3944 18.8825 0 0 0
271 16 1 -0.091211 8.63917 4.59464 10.3469 0 1 0
272 16 1 -0.050311 8.53624 3.19137 10.9367 0 1 0
273 16 2 -0.174311 7.51793 2.41647 10.1169 0 1 0
274 16 2 -0.174311 6.6498 1.42577 10.5068 0 1 0
275 16 1 -0.050311 6.70392 0.806903 11.8358 0 1 0
276 16 1 -0.091211 6.39977 -0.686936 11.8472 0 1 0
277 16 3 0.033922 8.80971 4.66026 9.26844 0 1 0
278 16 3 0.033922 9.51528 5.06067 10.8072 0 1 0
279 16 3 0.033922 7.75171 5.21247 10.5122 0 1 0
280 16 3 0.046089 9.47405 2.62846 10.9534 0 1 0
281 16 3 0.046089 8.10557 3.2067 11.942 0 1 0
282 16 4 0.121889 7.37886 2.74782 9.09281 0 1 0
283 16 4 0.121889 5.97572 1.03923 9.74907 0 1 0
284 16 3 0.046089 5.9948 1.29237 12.5125 0 1 0
285 16 3 0.046089 7.68254 1.02123 12.275 0 1 0
286 16 3 0.033922 6.37115 -0.933776 12.9124 0 1 0
287 16 3 0.033922 5.43803 -0.969694 11.4093 0 1 0
288 16 3 0.033922 7.29636 -1.11144 11.3862 0 1 0
289 17 1 -0.091211 6.99294 14.9109 18.8652 0 0 0
290 17 1 -0.050311 6.43852 14.0386 17.8031 0 0 0
291 17 2 -0.174311 7.3849 13.7597 16.7644 0 0 0
292 17 2 -0.174311 7.17998 13.6982 15.4061 0 0 0
293 17 1 -0.050311 5.82084 13.8415 14.763 0 0 0
294 17 1 -0.091211 5.98012 14.1644 13.2518 0 0 0
295 17 3 0.033922 7.90384 14.4348 19.2397 0 0 0
296 17 3 0.033922 6.21121 15.029 19.6212 0 0 0
297 17 3 0.033922 7.21924 15.917 18.5004 0 0 0
298 17 3 0.046089 6.0874 13.1116 18.2657 0 0 0
299 17 3 0.046089 5.53655 14.4619 17.3516 0 0 0
300 17 4 0.121889 8.39898 13.5715 17.1024 0 0 0
301 17 4 0.121889 8.0237 13.2737 14.8714 0 0 0
302 17 3 0.046089 5.27653 14.6637 15.2365 0 0 0
303 17 3 0.046089 5.19644 12.9774 15.0082 0 0 0
304 17 3 0.033922 4.99692 14.0715 12.7814 0 0 0
305 17 3 0.033922 6.24947 15.2076 13.0628 0 0 0
306 17 3 0.033922 6.61071 13.4073 12.7767 0 0 0
307 18 1 -0.091211 38.5078 8.71762 9.75937 -1 0 1
308 18 1 -0.050311 39.5142 7.98209 10.633 -1 0 1
309 18 2 -0.174311 39.3583 8.51957 12.0556 -1 0 1
310 18 2 -0.174311 40.2524 9.20553 12.7995 -1 0 1
311 18 1 -0.050311 41.5514 9.73188 12.3069 -1 0 1
312 18 1 -0.091211 -2.68444 10.3296 13.5096 0 0 1
313 18 3 0.033922 38.6789 8.59731 8.68572 -1 0 1
314 18 3 0.033922 38.608 9.77917 10.0035 -1 0 1
315 18 3 0.033922 37.4969 8.34862 9.95567 -1 0 1
316 18 3 0.046089 39.2064 6.93242 10.6341 -1 0 1
317 18 3 0.046089 40.5487 8.01972 10.2793 -1 0 1
318 18 4 0.121889 38.4017 8.32512 12.5299 -1 0 1
319 18 4 0.121889 39.8795 9.58847 13.7441 -1 0 1
320 18 3 0.046089 41.3614 10.4498 11.5038 -1 0 1
321 18 3 0.046089 -2.88593 8.94519 11.9134 0 0 1
322 18 3 0.033922 41.7995 11.048 14.0718 -1 0 1
323 18 3 0.033922 -2.49821 9.49942 14.1971 0 0 1
324 18 3 0.033922 -1.71697 10.717 13.1771 0 0 1
325 19 1 -0.091211 7.59909 13.3057 6.37499 0 0 0
326 19 1 -0.050311 9.1303 13.243 6.42618 0 0 0
327 19 2 -0.174311 9.53263 13.4772 5.01054 0 0 0
328 19 2 -0.174311 10.317 12.6548 4.22164 0 0 0
329 19 1 -0.050311 11.0294 11.3991 4.64742 0 0 0
330 19 1 -0.091211 12.2628 11.819 5.5541 0 0 0
331 19 3 0.033922 7.19209 14.318 6.29663 0 0 0
332 19 3 0.033922 7.24565 12.7322 7.23678 0 0 0
333 19 3 0.033922 7.25699 12.7576 5.49236 0 0 0
334 19 3 0.046089 9.4959 14.0468 7.07181 0 0 0
335 19 3 0.046089 9.524 12.2815 6.76838 0 0 0
336 19 4 0.121889 9.18047 14.4512 4.68635 0 0 0
337 19 4 0.121889 10.4171 13.0351 3.2101 0 0 0
338 19 3 0.046089 11.4484 10.8488 3.79993 0 0 0
339 19 3 0.046089 10.257 10.8101 5.15056 0 0 0
340 19 3 0.033922 12.0466 12.5996 6.28934 0 0 0
341 19 3 0.033922 12.5733 10.8967 6.05357 0 0 0
342 19 3 0.033922 13.0976 12.1356 4.92209 0 0 0
343 20 1 -0.091211 16.2139 18.5595 15.0375 0 -1 0
344 20 1 -0.050311 15.9048 19.6526 13.9927 0 -1 0
345 20 2 -0.174311 14.3751 19.9875 13.9952 0 -1 0
346 20 2 -0.174311 13.4658 19.1022 13.4548 0 -1 0
347 20 1 -0.050311 13.7423 17.7736 12.7369 0 -1 0
348 20 1 -0.091211 12.6735 17.5224 11.634 0 -1 0
349 20 3 0.033922 15.956 17.5386 14.7412 0 -1 0
350 20 3 0.033922 15.7458 18.8312 15.9881 0 -1 0
351 20 3 0.033922 17.2993 18.5283 15.1702 0 -1 0
352 20 3 0.046089 16.3926 20.6118 14.1888 0 -1 0
353 20 3 0.046089 16.2698 19.3622 13.0033 0 -1 0
354 20 4 0.121889 14.0916 20.8647 14.5679 0 -1 0
355 20 4 0.121889 12.4335 19.3887 13.629 0 -1 0
356 20 3 0.046089 13.8123 16.928 13.4272 0 -1 0
357 20 3 0.046089 14.7343 17.8651 12.285 0 -1 0
358 20 3 0.033922 12.6299 18.3602 10.9321 0 -1 0
359 20 3 0.033922 12.9238 16.6102 11.0847 0 -1 0
360 20 3 0.033922 11.6872 17.401 12.0912 0 -1 0
361 21 1 -0.091211 0.0880558 3.07637 14.0699 0 0 0
362 21 1 -0.050311 1.00994 1.95966 14.3381 0 0 0
363 21 2 -0.174311 0.349872 0.90865 15.1598 0 0 0
364 21 2 -0.174311 1.02599 -0.163797 15.7566 0 0 0
365 21 1 -0.050311 2.52006 -0.449082 15.6299 0 0 0
366 21 1 -0.091211 2.82089 22.879 15.7254 0 -1 0
367 21 3 0.033922 -0.850854 2.74689 13.6155 0 0 0
368 21 3 0.033922 0.595859 3.56919 13.2358 0 0 0
369 21 3 0.033922 -0.0343627 3.68421 14.9711 0 0 0
370 21 3 0.046089 1.20753 1.49777 13.3664 0 0 0
371 21 3 0.046089 1.95691 2.32098 14.7496 0 0 0
372 21 4 0.121889 -0.726493 0.955323 15.2913 0 0 0
373 21 4 0.121889 0.509436 -0.907057 16.3555 0 0 0
374 21 3 0.046089 3.08249 0.110853 16.3827 0 0 0
375 21 3 0.046089 2.90051 -0.0570249 14.6823 0 0 0
376 21 3 0.033922 2.57364 22.3925 14.7774 0 -1 0
377 21 3 0.033922 3.91001 22.8468 15.8226 0 -1 0
378 21 3 0.033922 2.24894 22.394 16.5218 0 -1 0
379 22 1 -0.091211 9.04648 21.4918 12.232 0 -1 0
380 22 1 -0.050311 10.1007 22.0778 13.2701 0 -1 0
381 22 2 -0.174311 9.73909 -1.13474 13.4197 0 0 0
382 22 2 -0.174311 9.87851 -0.375302 14.559 0 0 0
383 22 1 -0.050311 10.5687 -0.727505 15.8656 0 0 0
384 22 1 -0.091211 9.61247 -0.862301 17.0332 0 0 0
385 22 3 0.033922 8.05894 21.6694 12.6677 0 -1 0
386 22 3 0.033922 9.20351 20.4251 12.0471 0 -1 0
387 22 3 0.033922 9.17539 22.108 11.3375 0 -1 0
388 22 3 0.046089 10.0302 21.5019 14.1974 0 -1 0
389 22 3 0.046089 11.0745 22.1453 12.7764 0 -1 0
390 22 4 0.121889 9.27556 -0.711009 12.5346 0 0 0
391 22 4 0.121889 9.45295 0.611263 14.4056 0 0 0
392 22 3 0.046089 11.3206 0.0470527 16.0426 0 0 0
393 22 3 0.046089 11.0221 23.0167 15.7149 0 -1 0
394 22 3 0.033922 9.13013 0.100167 17.2271 0 0 0
395 22 3 0.033922 8.75563 23.2506 16.7436 0 -1 0
396 22 3 0.033922 10.0877 -1.2813 17.9249 0 0 0
397 23 1 -0.091211 3.5307 7.50877 20.2052 0 0 -1
398 23 1 -0.050311 4.60919 7.78615 19.1329 0 0 -1
399 23 2 -0.174311 5.88949 7.77773 19.8494 0 0 -1
400 23 2 -0.174311 6.43188 8.91097 20.4282 0 0 -1
401 23 1 -0.050311 5.86049 10.3129 20.4044 0 0 -1
402 23 1 -0.091211 6.188 11.0438 1.96626 0 0 0
403 23 3 0.033922 2.70807 6.89988 19.819 0 0 -1
404 23 3 0.033922 3.14315 8.51101 20.4098 0 0 -1
405 23 3 0.033922 3.98906 7.07053 1.33506 0 0 0
406 23 3 0.046089 4.57757 7.00456 18.3683 0 0 -1
407 23 3 0.046089 4.33909 8.70026 18.5963 0 0 -1
408 23 4 0.121889 6.42278 6.84367 19.9946 0 0 -1
409 23 4 0.121889 7.41587 8.58704 0.990635 0 0 0
410 23 3 0.046089 4.7688 10.3374 20.339 0 0 -1
411 23 3 0.046089 6.26429 10.9238 19.5918 0 0 -1
412 23 3 0.033922 6.22628 12.1251 1.8049 0 0 0
413 23 3 0.033922 5.46148 10.8466 2.75988 0 0 0
414 23 3 0.033922 7.2229 10.9009 2.29062 0 0 0
415 24 1 -0.091211 13.8357 14.3583 1.60407 0 0 0
416 24 1 -0.050311 12.3561 14.4852 1.40447 0 0 0
417 24 2 -0.174311 12.0307 15.9171 0.942505 0 0 0
418 24 2 -0.174311 10.9136 16.6565 1.24242 0 0 0
419 24 1 -0.050311 9.76855 16.2635 2.06697 0 0 0
420 24 1 -0.091211 8.51819 17.0713 1.63074 0 0 0
421 24 3 0.033922 14.105 13.3239 1.8364 0 0 0
422 24 3 0.033922 14.1867 14.9941 2.42202 0 0 0
423 24 3 0.033922 14.2816 14.7497 20.4465 0 0 -1
424 24 3 0.046089 12 13.6754 20.5225 0 0 -1
425 24 3 0.046089 11.9803 14.2806 2.41114 0 0 0
426 24 4 0.121889 12.8348 16.3887 20.1479 0 0 -1
427 24 4 0.121889 11.0518 17.6473 0.821407 0 0 0
428 24 3 0.046089 10.0348 16.4382 3.11343 0 0 0
429 24 3 0.046089 9.4618 15.219 1.95941 0 0 0
430 24 3 0.033922 8.42914 16.8664 20.3213 0 0 -1
431 24 3 0.033922 7.59851 16.6077 1.99937 0 0 0
432 24 3 0.033922 8.58334 18.1368 1.86937 0 0 0
433 25 1 -0.091211 5.25596 10.0338 15.3147 0 0 0
434 25 1 -0.050311 5.9699 10.0024 13.9409 0 0 0
435 25 2 -0.174311 4.95271 10.0463 12.7357 0 0 0
436 25 2 -0.174311 5.27585 9.76652 11.469 0 0 0
437 25 1 -0.050311 6.56659 9.36391 10.9783 0 0 0
438 25 1 -0.091211 6.52564 7.81455 10.95 0 0 0
439 25 3 0.033922 4.59302 10.8941 15.4452 0 0 0
440 25 3 0.033922 5.99039 10.0489 16.1252 0 0 0
441 25 3 0.033922 4.59994 9.16377 15.4111 0 0 0
442 25 3 0.046089 6.65734 10.8445 13.8188 0 0 0
443 25 3 0.046089 6.59372 9.11009 13.8354 0 0 0
444 25 4 0.121889 3.92396 10.2231 13.0331 0 0 0
445 25 4 0.121889 4.52064 9.82076 10.6914 0 0 0
446 25 3 0.046089 7.39016 9.7709 11.5722 0 0 0
447 25 3 0.046089 6.67516 9.698 9.94245 0 0 0
448 25 3 0.033922 5.64463 7.41941 10.4359 0 0 0
449 25 3 0.033922 7.38928 7.411 10.4135 0 0 0
450 25 3 0.033922 6.52115 7.33018 11.9308 0 0 0
451 26 1 -0.091211 -2.20376 21.94 10.9482 0 -1 0
452 26 1 -0.050311 -1.64165 22.259 12.3374 0 -1 0
453 26 2 -0.174311 -0.220153 21.7188 12.309 0 -1 0
454 26 2 -0.174311 0.889799 22.3261 11.698 0 -1 0
455 26 1 -0.050311 1.04068 -1.01528 11.1108 0 0 0
456 26 1 -0.091211 2.26568 -0.940451 10.232 0 0 0
457 26 3 0.033922 -1.64222 22.5854 10.2665 0 -1 0
458 26 3 0.033922 41.8127 21.9992 10.7342 -1 -1 0
459 26 3 0.033922 -1.99276 20.8753 10.8124 0 -1 0
460 26 3 0.046089 -1.73094 -1.4027 12.5635 0 0 0
461 26 3 0.046089 -2.20862 21.674 13.0674 0 -1 0
462 26 4 0.121889 -0.0297305 20.7529 12.7659 0 -1 0
463 26 4 0.121889 1.76414 21.6833 11.7159 0 -1 0
464 26 3 0.046089 1.01747 -0.291388 11.9305 0 0 0
465 26 3 0.046089 0.121832 -0.844107 10.5425 0 0 0
466 26 3 0.033922 2.52075 0.0980383 10.0017 0 0 0
467 26 3 0.033922 3.1475 -1.43291 10.6521 0 0 0
468 26 3 0.033922 2.04569 -1.46157 9.29572 0 0 0
469 27 1 -0.091211 16.2975 11.2667 4.14891 0 0 0
470 27 1 -0.050311 17.657 11.4105 4.81268 0 0 0
471 27 2 -0.174311 17.5626 12.1059 6.18989 0 0 0
472 27 2 -0.174311 18.6724 12.4336 6.9368 0 0 0
473 27 1 -0.050311 20.0963 11.9299 6.69744 0 0 0
474 27 1 -0.091211 20.7284 11.1835 7.90006 0 0 0
475 27 3 0.033922 16.4621 10.6814 3.2396 0 0 0
476 27 3 0.033922 15.8545 12.2562 4.00369 0 0 0
477 27 3 0.033922 15.573 10.6337 4.66953 0 0 0
478 27 3 0.046089 18.207 10.465 4.80166 0 0 0
479 27 3 0.046089 18.3065 11.9682 4.13178 0 0 0
480 27 4 0.121889 16.576 12.4138 6.52136 0 0 0
481 27 4 0.121889 18.4897 12.9261 7.88649 0 0 0
482 27 3 0.046089 20.7351 12.7904 6.47858 0 0 0
483 27 3 0.046089 20.1236 11.2003 5.88295 0 0 0
484 27 3 0.033922 20.8465 11.7925 8.80103 0 0 0
485 27 3 0.033922 20.0393 10.3844 8.1883 0 0 0
486 27 3 0.033922 21.6742 10.696 7.64627 0 0 0
487 28 1 -0.091211 9.95599 0.064567 1.49216 0 0 0
488 28 1 -0.050311 8.89617 -1.00748 1.67685 0 0 0
489 28 2 -0.174311 7.91793 -0.912133 20.3242 0 0 -1
490 28 2 -0.174311 7.36578 22.7711 19.6518 0 -1 -1
491 28 1 -0.050311 7.61321 21.3288 20.0676 0 -1 -1
492 28 1 -0.091211 6.39683 20.4279 19.753 0 -1 -1
493 28 3 0.033922 9.42972 1.0157 1.61447 0 0 0
494 28 3 0.033922 10.3822 0.00705612 20.2478 0 0 -1
495 28 3 0.033922 10.7122 -0.126046 2.25919 0 0 0
496 28 3 0.046089 9.31787 22.7128 1.72889 0 -1 0
497 28 3 0.046089 8.26205 -0.861838 2.55619 0 0 0
498 28 4 0.121889 7.67967 0.0406301 19.8622 0 0 -1
499 28 4 0.121889 6.74199 22.9084 18.7743 0 -1 -1
500 28 3 0.046089 7.87763 21.3006 1.36719 0 -1 0
501 28 3 0.046089 8.51677 20.8971 19.6273 0 -1 -1
502 28 3 0.033922 6.54711 19.4119 20.1293 0 -1 -1
503 28 3 0.033922 5.58973 20.8327 20.3706 0 -1 -1
504 28 3 0.033922 6.06712 20.4437 18.7102 0 -1 -1
505 29 1 -0.091211 7.53591 2.98234 5.09163 0 0 0
506 29 1 -0.050311 6.25197 2.95638 4.29933 0 0 0
507 29 2 -0.174311 5.68693 4.32777 4.3099 0 0 0
508 29 2 -0.174311 4.28896 4.60176 4.04041 0 0 0
509 29 1 -0.050311 3.17941 3.55079 4.05453 0 0 0
510 29 1 -0.091211 2.13594 3.96569 3.00869 0 0 0
511 29 3 0.033922 7.48956 3.54295 6.02974 0 0 0
512 29 3 0.033922 8.35198 3.51385 4.59351 0 0 0
513 29 3 0.033922 7.90793 1.97585 5.30408 0 0 0
514 29 3 0.046089 6.38317 2.59809 3.2742 0 0 0
515 29 3 0.046089 5.49306 2.33467 4.78319 0 0 0
516 29 4 0.121889 6.43099 5.11719 4.27552 0 0 0
517 29 4 0.121889 4.08117 5.66543 3.98229 0 0 0
518 29 3 0.046089 2.73577 3.41775 5.04548 0 0 0
519 29 3 0.046089 3.59532 2.56332 3.8343 0 0 0
520 29 3 0.033922 1.63888 4.79448 3.52113 0 0 0
521 29 3 0.033922 2.58845 4.22651 2.04759 0 0 0
522 29 3 0.033922 1.51451 3.07016 2.91684 0 0 0
523 30 1 -0.091211 6.23186 22.7158 8.2776 0 0 1
524 30 1 -0.050311 7.68768 22.4134 8.17176 0 0 1
525 30 2 -0.174311 8.61099 -1.09172 8.04939 0 1 1
526 30 2 -0.174311 9.34034 -0.808058 6.9333 0 1 1
527 30 1 -0.050311 9.31483 -1.50638 5.58221 0 1 1
528 30 1 -0.091211 10.274 22.0303 5.72767 0 0 1
529 30 3 0.033922 5.87274 -1.38539 7.4564 0 1 1
530 30 3 0.033922 5.95123 -1.55288 9.22974 0 1 1
531 30 3 0.033922 5.683 21.7701 8.24637 0 0 1
532 30 3 0.046089 7.94651 21.8764 9.08893 0 0 1
533 30 3 0.046089 7.87938 21.8045 7.28346 0 0 1
534 30 4 0.121889 8.76912 -0.53162 8.96545 0 1 1
535 30 4 0.121889 10.0313 0.0284966 6.95906 0 1 1
536 30 3 0.046089 9.63552 -0.878691 4.74575 0 1 1
537 30 3 0.046089 8.32576 22.8701 5.27459 0 0 1
538 30 3 0.033922 9.80329 21.2912 6.38242 0 0 1
539 30 3 0.033922 10.5343 21.5502 4.77993 0 0 1
540 30 3 0.033922 11.1824 22.4278 6.18979 0 0 1
541 31 1 -0.091211 21.7846 -1.14561 15.3839 0 1 0
542 31 1 -0.050311 22.0998 0.191351 14.6302 0 1 0
543 31 2 -0.174311 23.3918 0.728484 15.1309 0 1 0
544 31 2 -0.174311 23.9085 1.95763 14.8071 0 1 0
545 31 1 -0.050311 23.3473 2.92939 13.7529 0 1 0
546 31 1 -0.091211 24.4531 3.98303 13.3135 0 1 0
547 31 3 0.033922 22.5589 22.8578 15.116 0 0 0
548 31 3 0.033922 20.846 -1.46923 14.9247 0 1 0
549 31 3 0.033922 21.8099 -1.11985 16.4772 0 1 0
550 31 3 0.046089 22.013 0.14541 13.5408 0 1 0
551 31 3 0.046089 21.3235 0.916847 14.8903 0 1 0
552 31 4 0.121889 24.0475 0.148511 15.7725 0 1 0
553 31 4 0.121889 24.8717 2.16864 15.2605 0 1 0
554 31 3 0.046089 22.5124 3.41809 14.2635 0 1 0
555 31 3 0.046089 22.9735 2.44335 12.8471 0 1 0
556 31 3 0.033922 24.8406 4.4855 14.2045 0 1 0
557 31 3 0.033922 25.277 3.50651 12.7742 0 1 0
558 31 3 0.033922 24.1026 4.73129 12.5967 0 1 0
559 32 1 -0.091211 17.0961 1.10997 2.89498 0 1 0
560 32 1 -0.050311 16.4306 0.224511 3.95757 0 1 0
561 32 2 -0.174311 17.0382 -1.14762 3.71263 0 1 0
562 32 2 -0.174311 16.8464 22.5705 4.66512 0 0 0
563 32 1 -0.050311 16.0436 22.5487 5.93476 0 0 0
564 32 1 -0.091211 16.9719 22.6448 7.14271 0 0 0
565 32 3 0.033922 16.7991 2.15703 3.00465 0 1 0
566 32 3 0.033922 16.9317 0.914148 1.83145 0 1 0
567 32 3 0.033922 18.1573 1.05463 3.15469 0 1 0
568 32 3 0.046089 16.5718 0.594715 4.97712 0 1 0
569 32 3 0.046089 15.3606 0.151955 3.74175 0 1 0
570 32 4 0.121889 17.4441 -1.53507 2.78362 0 1 0
571 32 4 0.121889 17.2902 21.6193 4.3892 0 0 0
572 32 3 0.046089 15.5057 21.6001 6.02043 0 0 0
573 32 3 0.046089 15.3298 -1.35136 5.97143 0 1 0
574 32 3 0.033922 16.3807 22.5768 8.06054 0 0 0
575 32 3 0.033922 17.707 21.8361 7.19034 0 0 0
576 32 3 0.033922 17.4354 -1.09709 7.04842 0 1 0
577 33 1 -0.091211 11.4486 14.8247 14.0475 0 0 0
578 33 1 -0.050311 11.4702 15.7912 15.3058 0 0 0
579 33 2 -0.174311 11.7123 15.0516 16.654 0 0 0
580 33 2 -0.174311 12.9824 14.9472 17.224 0 0 0
581 33 1 -0.050311 14.2955 15.5013 16.6674 0 0 0
582 33 1 -0.091211 15.0351 16.2705 17.7652 0 0 0
583 33 3 0.033922 10.5339 14.2366 14.1663 0 0 0
584 33 3 0.033922 12.2781 14.1118 14.0355 0 0 0
585 33 3 0.033922 11.467 15.5327 13.2139 0 0 0
586 33 3 0.046089 12.2972 16.4644 15.0621 0 0 0
587 33 3 0.046089 10.5863 16.426 15.417 0 0 0
588 33 4 0.121889 10.9442 14.5444 17.229 0 0 0
589 33 4 0.121889 13.1118 14.5075 18.2078 0 0 0
590 33 3 0.046089 14.1963 16.0651 15.7353 0 0 0
591 33 3 0.046089 14.9031 14.6095 16.4883 0 0 0
592 33 3 0.033922 14.433 17.0601 18.2241 0 0 0
593 33 3 0.033922 15.1704 15.5981 18.6173 0 0 0
594 33 3 0.033922 15.9814 16.6602 17.3788 0 0 0
595 34 1 -0.091211 14.7057 14.0663 11.7743 0 0 0
596 34 1 -0.050311 16.0888 14.4407 11.3056 0 0 0
597 34 2 -0.174311 16.7404 15.4112 12.4239 0 0 0
598 34 2 -0.174311 17.3019 16.6217 12.1 0 0 0
599 34 1 -0.050311 17.2834 17.2729 10.7595 0 0 0
600 34 1 -0.091211 18.3504 18.4086 10.7788 0 0 0
601 34 3 0.033922 14.8039 13.6044 12.761 0 0 0
602 34 3 0.033922 14.2956 13.3428 11.0638 0 0 0
603 34 3 0.033922 14.0888 14.9541 11.9414 0 0 0
604 34 3 0.046089 16.6564 13.5337 11.0779 0 0 0
605 34 3 0.046089 15.9812 14.947 10.342 0 0 0
606 34 4 0.121889 16.6968 15.0257 13.4375 0 0 0
607 34 4 0.121889 17.7392 17.1655 12.9312 0 0 0
608 34 3 0.046089 16.2541 17.5373 10.5 0 0 0
609 34 3 0.046089 17.5113 16.5179 10.0015 0 0 0
610 34 3 0.033922 19.308 17.9461 11.0353 0 0 0
611 34 3 0.033922 18.4147 18.8485 9.77939 0 0 0
612 34 3 0.033922 18.2551 19.2635 11.4545 0 0 0
613 35 1 -0.091211 36.8209 12.2426 13.684 -1 0 0
614 35 1 -0.050311 37.4135 11.3032 14.7242 -1 0 0
615 35 2 -0.174311 36.6533 9.98188 14.7325 -1 0 0
616 35 2 -0.174311 36.2488 9.35877 15.9068 -1 0 0
617 35 1 -0.050311 36.6205 9.84166 17.3086 -1 0 0