ITEM: TIMESTEP
21300
ITEM: NUMBER OF ATOMS
1800
ITEM: BOX BOUNDS pp pp pp
-7.7760461124769265e-01 3.9585620111247671e+01
2.0589365004469862e-01 2.1402761849955617e+01
-2.3052520963343266e+00 2.3558985596334459e+01
ITEM: ATOMS id mol type q x y z ix iy iz
1 1 1 -0.091211 6.86285 16.1554 4.60597 0 -1 0
2 1 1 -0.050311 6.98481 17.6143 5.1117 0 -1 0
3 1 2 -0.174311 6.00671 17.9169 6.23194 0 -1 0
4 1 2 -0.174311 6.14285 18.6997 7.37965 0 -1 0
5 1 1 -0.050311 7.20242 19.6235 7.69077 0 -1 0
6 1 1 -0.091211 6.66867 20.9825 7.90053 0 -1 0
7 1 3 0.033922 7.08619 15.5373 5.48044 0 -1 0
8 1 3 0.033922 7.60885 15.8383 3.87137 0 -1 0
9 1 3 0.033922 5.85321 15.9522 4.23714 0 -1 0
10 1 3 0.046089 7.98799 17.8371 5.48675 0 -1 0
11 1 3 0.046089 6.80097 18.2339 4.22916 0 -1 0
12 1 4 0.121889 5.14515 17.2574 6.20269 0 -1 0
13 1 4 0.121889 5.37023 18.4301 8.09272 0 -1 0
14 1 3 0.046089 7.8077 19.715 6.78417 0 -1 0
15 1 3 0.046089 7.81541 19.3351 8.54967 0 -1 0
16 1 3 0.033922 7.37755 0.558937 7.59039 0 0 0
17 1 3 0.033922 5.81444 21.1967 7.25158 0 -1 0
18 1 3 0.033922 6.28708 21.1434 8.91303 0 -1 0
19 2 1 -0.091211 4.72552 4.78354 19.0547 0 0 0
20 2 1 -0.050311 6.06731 4.87255 19.6159 0 0 0
21 2 2 -0.174311 7.01432 4.23193 18.6514 0 0 0
22 2 2 -0.174311 7.81762 4.86257 17.7044 0 0 0
23 2 1 -0.050311 7.9636 6.33534 17.6611 0 0 0
24 2 1 -0.091211 8.72408 6.91954 16.4271 0 0 0
25 2 3 0.033922 4.37847 3.75306 18.9347 0 0 0
26 2 3 0.033922 4.67874 5.42013 18.1664 0 0 0
27 2 3 0.033922 4.00146 5.24873 19.73 0 0 0
28 2 3 0.046089 6.33189 5.90472 19.8636 0 0 0
29 2 3 0.046089 6.04637 4.34997 20.5767 0 0 0
30 2 4 0.121889 7.10451 3.15252 18.7211 0 0 0
31 2 4 0.121889 8.53828 4.22976 17.1961 0 0 0
32 2 3 0.046089 8.45641 6.58743 18.6046 0 0 0
33 2 3 0.046089 7.00037 6.8519 17.6155 0 0 0
34 2 3 0.033922 8.15109 6.66753 15.53 0 0 0
35 2 3 0.033922 8.71977 8.01205 16.4829 0 0 0
36 2 3 0.033922 9.74982 6.57343 16.2696 0 0 0
37 3 1 -0.091211 3.07962 6.46069 10.7957 0 0 0
38 3 1 -0.050311 3.48334 7.92912 10.5272 0 0 0
39 3 2 -0.174311 3.4168 8.68547 11.7582 0 0 0
40 3 2 -0.174311 4.20703 9.69642 12.2949 0 0 0
41 3 1 -0.050311 5.57589 10.0059 11.6443 0 0 0
42 3 1 -0.091211 5.41919 11.3011 10.9027 0 0 0
43 3 3 0.033922 3.71426 5.98139 11.5468 0 0 0
44 3 3 0.033922 3.02315 5.95864 9.82544 0 0 0
45 3 3 0.033922 2.04828 6.36927 11.1488 0 0 0
46 3 3 0.046089 4.4793 7.98857 10.0786 0 0 0
47 3 3 0.046089 2.8086 8.32776 9.76396 0 0 0
48 3 4 0.121889 2.63522 8.34306 12.429 0 0 0
49 3 4 0.121889 3.97229 10.1054 13.2725 0 0 0
50 3 3 0.046089 5.99001 9.26397 10.9553 0 0 0
51 3 3 0.046089 6.29613 10.1566 12.4537 0 0 0
52 3 3 0.033922 6.34405 11.4847 10.3481 0 0 0
53 3 3 0.033922 4.64312 11.186 10.1404 0 0 0
54 3 3 0.033922 5.10847 12.1254 11.5513 0 0 0
55 4 1 -0.091211 3.74672 4.36999 5.11927 0 0 0
56 4 1 -0.050311 4.40338 3.35831 4.17324 0 0 0
57 4 2 -0.174311 3.49778 2.19869 3.82545 0 0 0
58 4 2 -0.174311 3.8179 1.12607 3.00481 0 0 0
59 4 1 -0.050311 5.25989 0.818174 2.46042 0 0 0
60 4 1 -0.091211 5.54516 1.41773 1.09295 0 0 0
61 4 3 0.033922 2.83402 4.7848 4.68153 0 0 0
62 4 3 0.033922 4.40788 5.19446 5.40185 0 0 0
63 4 3 0.033922 3.55756 3.7105 5.9713 0 0 0
64 4 3 0.046089 4.67032 3.94309 3.28812 0 0 0
65 4 3 0.046089 5.35681 2.94541 4.51559 0 0 0
66 4 4 0.121889 2.44727 2.27394 4.08791 0 0 0
67 4 4 0.121889 2.95316 0.540957 2.70821 0 0 0
68 4 3 0.046089 5.34132 20.9255 2.40631 0 -1 0
69 4 3 0.046089 6.04636 1.10144 3.16605 0 0 0
70 4 3 0.033922 6.49123 0.9363 0.828586 0 0 0
71 4 3 0.033922 4.7393 1.18205 0.391708 0 0 0
72 4 3 0.033922 5.70177 2.49992 1.06043 0 0 0
73 5 1 -0.091211 0.866975 3.68821 8.45146 0 0 0
74 5 1 -0.050311 0.176909 4.7444 7.67685 0 0 0
75 5 2 -0.174311 39.1101 4.79264 7.99281 -1 0 0
76 5 2 -0.174311 38.0241 5.3533 7.23084 -1 0 0
77 5 1 -0.050311 38.2423 6.06995 5.92861 -1 0 0
78 5 1 -0.091211 37.0478 5.80227 5.0013 -1 0 0
79 5 3 0.033922 0.812973 3.90685 9.52194 0 0 0
80 5 3 0.033922 1.8762 3.70914 8.02988 0 0 0
81 5 3 0.033922 0.383194 2.71651 8.31548 0 0 0
82 5 3 0.046089 0.72242 5.67084 7.87899 0 0 0
83 5 3 0.046089 0.294071 4.52302 6.61201 0 0 0
84 5 4 0.121889 38.6879 4.38425 8.90553 -1 0 0
85 5 4 0.121889 37.0367 5.32562 7.68076 -1 0 0
86 5 3 0.046089 39.1961 5.68837 5.55272 -1 0 0
87 5 3 0.046089 38.4642 7.13367 6.05502 -1 0 0
88 5 3 0.033922 37.2951 6.11184 3.98168 -1 0 0
89 5 3 0.033922 36.921 4.71695 4.94911 -1 0 0
90 5 3 0.033922 36.0793 6.20808 5.30824 -1 0 0
91 6 1 -0.091211 13.446 7.80099 22.8633 0 0 0
92 6 1 -0.050311 12.1223 8.43885 23.2806 0 0 0
93 6 2 -0.174311 11.2903 7.34839 -2.02481 0 0 1
94 6 2 -0.174311 10.4096 6.56744 23.155 0 0 0
95 6 1 -0.050311 9.95073 6.7178 21.7748 0 0 0
96 6 1 -0.091211 10.4972 5.47622 21.0972 0 0 0
97 6 3 0.033922 13.8801 7.21552 -2.1852 0 0 1
98 6 3 0.033922 14.1386 8.55409 22.4761 0 0 0
99 6 3 0.033922 13.1579 7.08385 22.0891 0 0 0
100 6 3 0.046089 12.3413 9.16375 -1.79415 0 0 1
101 6 3 0.046089 11.6955 9.02635 22.4625 0 0 0
102 6 4 0.121889 11.5685 7.02713 -1.0261 0 0 1
103 6 4 0.121889 9.97635 5.70135 -2.21914 0 0 1
104 6 3 0.046089 10.4523 7.59886 21.3638 0 0 0
105 6 3 0.046089 8.85795 6.76083 21.7483 0 0 0
106 6 3 0.033922 10.2888 5.44693 20.0237 0 0 0
107 6 3 0.033922 11.5845 5.40557 21.1946 0 0 0
108 6 3 0.033922 10.0157 4.65375 21.6343 0 0 0
109 7 1 -0.091211 36.5131 14.5412 11.0509 -1 0 0
110 7 1 -0.050311 37.4336 14.9654 9.91831 -1 0 0
111 7 2 -0.174311 38.5394 13.9416 9.79596 -1 0 0
112 7 2 -0.174311 38.6017 12.939 8.93839 -1 0 0
113 7 1 -0.050311 37.5476 12.471 7.93362 -1 0 0
114 7 1 -0.091211 38.2742 12.4365 6.56781 -1 0 0
115 7 3 0.033922 37.0473 14.5072 12.0049 -1 0 0
116 7 3 0.033922 36.1188 13.5329 10.8944 -1 0 0
117 7 3 0.033922 35.6753 15.2444 11.0682 -1 0 0
118 7 3 0.046089 36.9316 15.1753 8.96928 -1 0 0
119 7 3 0.046089 37.9055 15.9174 10.1787 -1 0 0
120 7 4 0.121889 39.3748 14.164 10.4523 -1 0 0
121 7 4 0.121889 39.5247 12.3685 8.96514 -1 0 0
122 7 3 0.046089 36.7114 13.1763 7.92864 -1 0 0
123 7 3 0.046089 37.1259 11.4747 8.0955 -1 0 0
124 7 3 0.033922 39.2325 11.9096 6.59289 -1 0 0
125 7 3 0.033922 37.6751 11.9921 5.76762 -1 0 0
126 7 3 0.033922 38.499 13.4651 6.27095 -1 0 0
127 8 1 -0.091211 0.270967 5.62237 13.7129 0 0 0
128 8 1 -0.050311 0.890626 6.73839 14.4894 0 0 0
129 8 2 -0.174311 2.24186 6.19184 14.8755 0 0 0
130 8 2 -0.174311 2.59652 5.58305 16.0977 0 0 0
131 8 1 -0.050311 1.70548 5.32396 17.2861 0 0 0
132 8 1 -0.091211 1.08762 3.89204 17.1918 0 0 0
133 8 3 0.033922 0.116856 4.69678 14.2753 0 0 0
134 8 3 0.033922 0.875717 5.34614 12.8442 0 0 0
135 8 3 0.033922 -0.679083 6.02638 13.3511 0 0 0
136 8 3 0.046089 1.0404 7.60209 13.835 0 0 0
137 8 3 0.046089 0.332899 7.05181 15.3768 0 0 0
138 8 4 0.121889 3.06616 6.23692 14.1708 0 0 0
139 8 4 0.121889 3.64966 5.36413 16.243 0 0 0
140 8 3 0.046089 0.836629 5.98647 17.34 0 0 0
141 8 3 0.046089 2.2162 5.43222 18.2474 0 0 0
142 8 3 0.033922 0.211918 3.81027 17.8423 0 0 0
143 8 3 0.033922 0.658282 3.67662 16.209 0 0 0
144 8 3 0.033922 1.89007 3.18207 17.4126 0 0 0
145 9 1 -0.091211 0.663933 5.01115 21.1114 0 0 0
146 9 1 -0.050311 0.123628 6.38502 21.5843 0 0 0
147 9 2 -0.174311 -0.368385 7.11415 20.4156 0 0 0
148 9 2 -0.174311 39.2416 8.3237 20.5258 -1 0 0
149 9 1 -0.050311 38.9074 8.96576 21.7751 -1 0 0
150 9 1 -0.091211 37.9472 10.1619 21.5798 -1 0 0
151 9 3 0.033922 -0.0603635 4.20796 20.9471 0 0 0
152 9 3 0.033922 1.36163 4.5307 21.8036 0 0 0
153 9 3 0.033922 1.10222 5.09818 20.1129 0 0 0
154 9 3 0.046089 -0.720847 6.23399 22.2631 0 0 0
155 9 3 0.046089 0.903281 6.99501 22.0499 0 0 0
156 9 4 0.121889 -0.209202 6.72755 19.414 0 0 0
157 9 4 0.121889 38.8399 8.89101 19.6922 -1 0 0
158 9 3 0.046089 -0.493162 9.17639 22.25 0 0 0
159 9 3 0.046089 38.4087 8.20965 22.3886 -1 0 0
160 9 3 0.033922 38.4145 10.8565 20.8755 -1 0 0
161 9 3 0.033922 36.9945 9.85042 21.1415 -1 0 0
162 9 3 0.033922 37.7357 10.6512 22.535 -1 0 0
163 10 1 -0.091211 8.01228 11.6777 5.9856 0 0 1
164 10 1 -0.050311 6.73024 11.0335 5.50769 0 0 1
165 10 2 -0.174311 6.58487 9.63736 6.08403 0 0 1
166 10 2 -0.174311 5.54822 8.76754 5.65976 0 0 1
167 10 1 -0.050311 4.6405 9.07138 4.41929 0 0 1
168 10 1 -0.091211 3.22985 8.92707 4.90875 0 0 1
169 10 3 0.033922 8.02676 11.7437 7.07742 0 0 1
170 10 3 0.033922 8.13148 12.6751 5.55229 0 0 1
171 10 3 0.033922 8.90618 11.2588 5.51427 0 0 1
172 10 3 0.046089 5.88075 11.6731 5.76462 0 0 1
173 10 3 0.046089 6.67407 10.9979 4.4158 0 0 1
174 10 4 0.121889 7.31717 9.30487 6.81291 0 0 1
175 10 4 0.121889 5.46545 7.76218 6.06038 0 0 1
176 10 3 0.046089 4.87354 8.48752 3.52405 0 0 1
177 10 3 0.046089 4.68469 10.1179 4.10372 0 0 1
178 10 3 0.033922 3.20651 9.36155 5.9124 0 0 1
179 10 3 0.033922 2.48275 9.45341 4.3075 0 0 1
180 10 3 0.033922 2.93405 7.87552 4.96763 0 0 1
181 11 1 -0.091211 1.70585 10.3799 -1.45748 0 0 0
182 11 1 -0.050311 1.03988 9.65121 -0.284868 0 0 0
183 11 2 -0.174311 0.922554 10.5642 0.907041 0 0 0
184 11 2 -0.174311 0.375809 10.315 2.13282 0 0 0
185 11 1 -0.050311 -0.381183 9.08299 2.41476 0 0 0
186 11 1 -0.091211 39.0745 9.23421 3.64534 -1 0 0
187 11 3 0.033922 1.29587 11.303 -1.87773 0 0 0
188 11 3 0.033922 1.81603 9.6106 -2.22733 0 0 0
189 11 3 0.033922 2.73188 10.6445 -1.18547 0 0 0
190 11 3 0.046089 0.0460659 9.24934 -0.502957 0 0 0
191 11 3 0.046089 1.72146 8.83184 -0.0383153 0 0 0
192 11 4 0.121889 1.42519 11.526 0.887734 0 0 0
193 11 4 0.121889 0.41548 11.0908 2.89092 0 0 0
194 11 3 0.046089 0.456449 8.41235 2.62768 0 0 0
195 11 3 0.046089 39.5504 8.6146 1.5254 -1 0 0
196 11 3 0.033922 38.8166 8.21521 3.9484 -1 0 0
197 11 3 0.033922 39.5434 9.66018 4.53717 -1 0 0
198 11 3 0.033922 38.2407 9.92751 3.501 -1 0 0
199 12 1 -0.091211 3.04189 11.7318 7.55903 0 0 0
200 12 1 -0.050311 3.19469 12.6337 6.38857 0 0 0
201 12 2 -0.174311 1.97527 13.4615 6.11097 0 0 0
202 12 2 -0.174311 1.77364 14.7159 5.49804 0 0 0
203 12 1 -0.050311 2.84431 15.4764 4.76561 0 0 0
204 12 1 -0.091211 2.27483 16.9355 4.69808 0 0 0
205 12 3 0.033922 2.22628 11.0659 7.26234 0 0 0
206 12 3 0.033922 2.79167 12.4207 8.37108 0 0 0
207 12 3 0.033922 3.9908 11.1938 7.64168 0 0 0
208 12 3 0.046089 4.0714 13.2836 6.46416 0 0 0
209 12 3 0.046089 3.31258 11.9574 5.5369 0 0 0
210 12 4 0.121889 1.05825 13.1143 6.57634 0 0 0
211 12 4 0.121889 0.777386 15.1247 5.63395 0 0 0
212 12 3 0.046089 2.98444 15.0258 3.77867 0 0 0
213 12 3 0.046089 3.71915 15.4335 5.42099 0 0 0
214 12 3 0.033922 1.35565 16.9258 4.10504 0 0 0
215 12 3 0.033922 1.96591 17.3989 5.63962 0 0 0
216 12 3 0.033922 2.98184 17.5679 4.15316 0 0 0
217 13 1 -0.091211 6.68276 14.6803 8.57531 0 0 0
218 13 1 -0.050311 5.50707 15.0727 9.464 0 0 0
219 13 2 -0.174311 4.25645 15.485 8.63443 0 0 0
220 13 2 -0.174311 3.01852 15.7508 9.21265 0 0 0
221 13 1 -0.050311 2.72711 15.8207 10.6886 0 0 0
222 13 1 -0.091211 2.31654 14.4093 11.2186 0 0 0
223 13 3 0.033922 6.47314 14.0635 7.69648 0 0 0
224 13 3 0.033922 7.44553 14.127 9.13103 0 0 0
225 13 3 0.033922 7.27006 15.5436 8.24909 0 0 0
226 13 3 0.046089 5.17479 14.1719 9.98828 0 0 0
227 13 3 0.046089 5.84958 15.8366 10.1681 0 0 0
228 13 4 0.121889 4.39592 15.4293 7.55951 0 0 0
229 13 4 0.121889 2.22275 15.8882 8.48744 0 0 0
230 13 3 0.046089 1.88656 16.4919 10.8878 0 0 0
231 13 3 0.046089 3.61073 16.1288 11.2551 0 0 0
232 13 3 0.033922 1.70314 13.943 10.4421 0 0 0
233 13 3 0.033922 3.15727 13.7762 11.5172 0 0 0
234 13 3 0.033922 1.66699 14.499 12.0942 0 0 0
235 14 1 -0.091211 11.9519 8.78182 18.6966 0 0 0
236 14 1 -0.050311 12.9593 8.81371 17.6071 0 0 0
237 14 2 -0.174311 12.4286 9.00172 16.1985 0 0 0
238 14 2 -0.174311 11.883 10.1572 15.6782 0 0 0
239 14 1 -0.050311 11.7637 11.4872 16.4311 0 0 0
240 14 1 -0.091211 10.3115 11.6874 16.7753 0 0 0
241 14 3 0.033922 11.0534 8.27298 18.3355 0 0 0
242 14 3 0.033922 11.7439 9.81321 18.996 0 0 0
243 14 3 0.033922 12.4296 8.24402 19.5207 0 0 0
244 14 3 0.046089 13.6331 9.63152 17.8791 0 0 0
245 14 3 0.046089 13.5665 7.90494 17.6539 0 0 0
246 14 4 0.121889 12.4309 8.19751 15.4695 0 0 0
247 14 4 0.121889 11.599 10.053 14.6358 0 0 0
248 14 3 0.046089 11.9505 12.3994 15.8568 0 0 0
249 14 3 0.046089 12.4373 11.4811 17.293 0 0 0
250 14 3 0.033922 10.1095 12.595 17.3515 0 0 0
251 14 3 0.033922 9.64299 11.7249 15.9102 0 0 0
252 14 3 0.033922 9.91644 10.9807 17.511 0 0 0
253 15 1 -0.091211 5.68844 16.7622 16.8913 0 0 0
254 15 1 -0.050311 4.56724 16.5915 17.9027 0 0 0
255 15 2 -0.174311 3.50094 15.7231 17.2377 0 0 0
256 15 2 -0.174311 2.85562 14.6379 17.8002 0 0 0
257 15 1 -0.050311 3.03424 14.2627 19.3008 0 0 0
258 15 1 -0.091211 4.44213 13.5737 19.5224 0 0 0
259 15 3 0.033922 6.35758 15.8969 16.8782 0 0 0
260 15 3 0.033922 6.20368 17.7052 17.0964 0 0 0
261 15 3 0.033922 5.24453 16.7815 15.8917 0 0 0
262 15 3 0.046089 4.97043 16.1646 18.8257 0 0 0
263 15 3 0.046089 4.08451 17.5391 18.1592 0 0 0
264 15 4 0.121889 3.16656 15.9397 16.228 0 0 0
265 15 4 0.121889 1.99486 14.2518 17.2635 0 0 0
266 15 3 0.046089 2.2064 13.6148 19.6035 0 0 0
267 15 3 0.046089 2.90098 15.1643 19.9059 0 0 0
268 15 3 0.033922 5.22393 14.3388 19.5304 0 0 0
269 15 3 0.033922 4.64124 13.0212 20.4453 0 0 0
270 15 3 0.033922 4.71621 12.8489 18.7502 0 0 0
271 16 1 -0.091211 11.3768 17.2473 2.91566 0 0 0
272 16 1 -0.050311 9.91817 17.607 3.34496 0 0 0
273 16 2 -0.174311 9.9239 18.9874 3.90647 0 0 0
274 16 2 -0.174311 9.44438 20.1334 3.27606 0 0 0
275 16 1 -0.050311 8.94569 20.3747 1.90673 0 0 0
276 16 1 -0.091211 9.45149 0.554585 1.47616 0 1 0
277 16 3 0.033922 11.6079 17.7178 1.95555 0 0 0
278 16 3 0.033922 11.4155 16.1579 2.82281 0 0 0
279 16 3 0.033922 12.103 17.6266 3.64056 0 0 0
280 16 3 0.046089 9.23878 17.5215 2.49186 0 0 0
281 16 3 0.046089 9.64042 16.8526 4.0869 0 0 0
282 16 4 0.121889 10.3604 19.1382 4.88868 0 0 0
283 16 4 0.121889 9.30245 20.9468 3.98062 0 0 0
284 16 3 0.046089 7.85327 20.3182 1.89395 0 0 0
285 16 3 0.046089 9.34462 19.6527 1.18821 0 0 0
286 16 3 0.033922 8.96347 0.866815 0.548256 0 1 0
287 16 3 0.033922 9.2319 1.34955 2.19484 0 1 0
288 16 3 0.033922 10.5396 0.457258 1.41894 0 1 0
289 17 1 -0.091211 7.47335 17.8491 11.4785 0 0 0
290 17 1 -0.050311 6.11462 18.5219 11.3962 0 0 0
291 17 2 -0.174311 5.32304 18.414 12.6539 0 0 0
292 17 2 -0.174311 5.66888 19.0048 13.8751 0 0 0
293 17 1 -0.050311 6.7904 19.9251 14.2108 0 0 0
294 17 1 -0.091211 6.52654 20.8809 15.3519 0 0 0
295 17 3 0.033922 8.16711 18.5449 11.9594 0 0 0
296 17 3 0.033922 7.82814 17.7427 10.4492 0 0 0
297 17 3 0.033922 7.55166 16.9183 12.0477 0 0 0
298 17 3 0.046089 6.1593 19.6065 11.2608 0 0 0
299 17 3 0.046089 5.5844 18.0296 10.5757 0 0 0
300 17 4 0.121889 4.33528 17.9641 12.6479 0 0 0
301 17 4 0.121889 4.90802 18.8569 14.6349 0 0 0
302 17 3 0.046089 7.21745 20.5029 13.3859 0 0 0
303 17 3 0.046089 7.59576 19.2588 14.5335 0 0 0
304 17 3 0.033922 7.33862 0.404995 15.484 0 1 0
305 17 3 0.033922 5.71476 0.364799 15.0793 0 1 0
306 17 3 0.033922 6.40785 20.3683 16.3109 0 0 0
307 18 1 -0.091211 6.44339 17.6713 0.629559 0 0 1
308 18 1 -0.050311 5.05573 18.1648 0.9927 0 0 1
309 18 2 -0.174311 4.20875 16.9381 1.20555 0 0 1
310 18 2 -0.174311 3.31427 16.4203 0.223128 0 0 1
311 18 1 -0.050311 3.03203 17.0245 -1.15255 0 0 1
312 18 1 -0.091211 1.48167 17.0672 -1.33109 0 0 1
313 18 3 0.033922 6.46524 17.1097 -0.308946 0 0 1
314 18 3 0.033922 6.88003 17.1122 1.46228 0 0 1
315 18 3 0.033922 7.13164 18.4868 0.388684 0 0 1
316 18 3 0.046089 5.02863 18.7114 1.93989 0 0 1
317 18 3 0.046089 4.67974 18.7962 0.182416 0 0 1
318 18 4 0.121889 4.34559 16.4676 2.17402 0 0 1
319 18 4 0.121889 2.74528 15.5783 0.604453 0 0 1
320 18 3 0.046089 3.46463 16.4026 -1.94169 0 0 1
321 18 3 0.046089 3.34895 18.0668 -1.25135 0 0 1
322 18 3 0.033922 1.2203 17.4278 23.534 0 0 0
323 18 3 0.033922 1.01071 16.1035 -1.11653 0 0 1
324 18 3 0.033922 1.04891 17.8081 -0.652503 0 0 1
325 19 1 -0.091211 15.8498 4.6859 -0.752274 0 0 0
326 19 1 -0.050311 15.0959 3.45175 -1.19341 0 0 0
327 19 2 -0.174311 16.0154 2.36614 -1.79334 0 0 0
328 19 2 -0.174311 16.044 2.0269 22.7353 0 0 -1
329 19 1 -0.050311 15.3442 2.68203 21.5161 0 0 -1
330 19 1 -0.091211 16.3975 2.81286 20.4356 0 0 -1
331 19 3 0.033922 16.5349 4.48579 0.0767075 0 0 0
332 19 3 0.033922 15.1321 5.43955 -0.41506 0 0 0
333 19 3 0.033922 16.5051 5.13653 -1.50341 0 0 0
334 19 3 0.046089 14.5291 3.06396 -0.341941 0 0 0
335 19 3 0.046089 14.3339 3.79097 -1.90119 0 0 0
336 19 4 0.121889 16.6779 1.86096 -1.09758 0 0 0
337 19 4 0.121889 16.6812 1.18618 22.4796 0 0 -1
338 19 3 0.046089 14.9599 3.64508 21.8647 0 0 -1
339 19 3 0.046089 14.537 2.0452 21.1426 0 0 -1
340 19 3 0.033922 16.9998 1.91082 20.2933 0 0 -1
341 19 3 0.033922 15.861 3.0509 19.5125 0 0 -1
342 19 3 0.033922 17.0155 3.69432 20.6299 0 0 -1
343 20 1 -0.091211 12.5222 2.63392 7.41287 0 0 0
344 20 1 -0.050311 12.3101 3.14273 8.83821 0 0 0
345 20 2 -0.174311 12.4618 1.88859 9.66217 0 0 0
346 20 2 -0.174311 11.4452 1.22352 10.3344 0 0 0
347 20 1 -0.050311 10.0147 1.62764 10.3111 0 0 0
348 20 1 -0.091211 9.02762 0.427588 10.6035 0 0 0
349 20 3 0.033922 13.5204 2.18687 7.43401 0 0 0
350 20 3 0.033922 12.4491 3.35635 6.59469 0 0 0
351 20 3 0.033922 11.7721 1.86992 7.18864 0 0 0
352 20 3 0.046089 12.995 3.90694 9.21715 0 0 0
353 20 3 0.046089 11.3064 3.57752 8.85532 0 0 0
354 20 4 0.121889 13.4051 1.39038 9.86238 0 0 0
355 20 4 0.121889 11.6621 0.258475 10.7813 0 0 0
356 20 3 0.046089 9.80009 1.97492 9.29625 0 0 0
357 20 3 0.046089 9.80496 2.48285 10.9602 0 0 0
358 20 3 0.033922 7.99579 0.645629 10.3128 0 0 0
359 20 3 0.033922 9.2916 20.7476 10.005 0 -1 0
360 20 3 0.033922 9.01746 21.3896 11.6718 0 -1 0
361 21 1 -0.091211 38.25 20.4068 22.6652 -1 -1 0
362 21 1 -0.050311 38.6887 20.478 21.2174 -1 -1 0
363 21 2 -0.174311 -0.579064 19.4461 21.1551 0 -1 0
364 21 2 -0.174311 0.663088 19.7356 20.7295 0 -1 0
365 21 1 -0.050311 1.38085 21.0151 20.5355 0 -1 0
366 21 1 -0.091211 2.45151 20.8607 19.4061 0 -1 0
367 21 3 0.033922 37.6348 19.5128 22.803 -1 -1 0
368 21 3 0.033922 37.5879 21.2435 22.9065 -1 -1 0
369 21 3 0.033922 39.1125 20.3432 23.335 -1 -1 0
370 21 3 0.046089 37.8646 20.2516 20.5345 -1 -1 0
371 21 3 0.046089 39.1268 0.243127 20.9358 -1 0 0
372 21 4 0.121889 39.5048 18.4171 21.3581 -1 -1 0
373 21 4 0.121889 1.16737 18.7845 20.5909 0 -1 0
374 21 3 0.046089 1.76532 21.399 21.485 0 -1 0
375 21 3 0.046089 0.654511 0.580494 20.2386 0 0 0
376 21 3 0.033922 2.87825 0.643481 19.1717 0 0 0
377 21 3 0.033922 3.21064 20.1005 19.6124 0 -1 0
378 21 3 0.033922 1.92436 20.4507 18.5397 0 -1 0
379 22 1 -0.091211 6.6078 20.7786 19.4567 0 -1 0
380 22 1 -0.050311 8.0945 20.7487 19.0298 0 -1 0
381 22 2 -0.174311 8.6182 0.830076 18.5377 0 0 0
382 22 2 -0.174311 9.54638 1.58855 19.1289 0 0 0
383 22 1 -0.050311 10.1642 1.53294 20.4907 0 0 0
384 22 1 -0.091211 11.6335 1.91369 20.3775 0 0 0
385 22 3 0.033922 6.50991 0.236236 20.3278 0 0 0
386 22 3 0.033922 6.27678 19.7671 19.7095 0 -1 0
387 22 3 0.033922 6.04017 0.107618 18.6835 0 0 0
388 22 3 0.046089 8.73369 20.3555 19.8257 0 -1 0
389 22 3 0.046089 8.22549 20.0104 18.2332 0 -1 0
390 22 4 0.121889 8.13154 1.2163 17.6477 0 0 0
391 22 4 0.121889 9.72642 2.45441 18.4997 0 0 0
392 22 3 0.046089 10.0894 0.527931 20.9162 0 0 0
393 22 3 0.046089 9.69045 2.27823 21.1363 0 0 0
394 22 3 0.033922 12.2028 1.14346 19.8489 0 0 0
395 22 3 0.033922 11.7712 2.93343 20.0061 0 0 0
396 22 3 0.033922 12.028 1.88516 21.3974 0 0 0
397 23 1 -0.091211 9.64735 9.2966 0.677767 0 0 0
398 23 1 -0.050311 8.58909 8.46698 1.27572 0 0 0
399 23 2 -0.174311 8.20363 7.22009 0.485907 0 0 0
400 23 2 -0.174311 7.43472 6.21854 0.910588 0 0 0
401 23 1 -0.050311 6.69148 6.16318 2.32332 0 0 0
402 23 1 -0.091211 7.30789 5.08535 3.17848 0 0 0
403 23 3 0.033922 9.65117 10.1462 1.36682 0 0 0
404 23 3 0.033922 9.46623 9.61593 -0.352699 0 0 0
405 23 3 0.033922 10.6211 8.80759 0.775103 0 0 0
406 23 3 0.046089 8.75673 8.0751 2.28317 0 0 0
407 23 3 0.046089 7.65526 9.03417 1.22093 0 0 0
408 23 4 0.121889 8.54576 7.14985 -0.54173 0 0 0
409 23 4 0.121889 7.32407 5.39668 0.210319 0 0 0
410 23 3 0.046089 5.62721 5.94068 2.20265 0 0 0
411 23 3 0.046089 6.73487 7.14063 2.81261 0 0 0
412 23 3 0.033922 7.14477 4.1258 2.67911 0 0 0
413 23 3 0.033922 8.37562 5.29704 3.28746 0 0 0
414 23 3 0.033922 6.853 5.11335 4.17293 0 0 0
415 24 1 -0.091211 4.21013 12.196 2.06349 0 0 0
416 24 1 -0.050311 5.42931 11.5111 1.36627 0 0 0
417 24 2 -0.174311 5.7824 12.5823 0.355148 0 0 0
418 24 2 -0.174311 6.98576 13.2107 0.239143 0 0 0
419 24 1 -0.050311 8.20132 13.001 1.08284 0 0 0
420 24 1 -0.091211 8.80979 14.3864 1.12649 0 0 0
421 24 3 0.033922 4.4278 13.1167 2.61275 0 0 0
422 24 3 0.033922 3.81263 11.5632 2.86239 0 0 0
423 24 3 0.033922 3.4902 12.5082 1.3013 0 0 0
424 24 3 0.046089 6.26679 11.2618 2.02442 0 0 0
425 24 3 0.046089 5.11069 10.59 0.869654 0 0 0
426 24 4 0.121889 5.01204 12.8907 -0.344504 0 0 0
427 24 4 0.121889 6.9959 13.9197 -0.582598 0 0 0
428 24 3 0.046089 8.87685 12.3009 0.582677 0 0 0
429 24 3 0.046089 8.01272 12.5435 2.05839 0 0 0
430 24 3 0.033922 9.87936 14.3467 1.35267 0 0 0
431 24 3 0.033922 8.85103 14.8697 0.145963 0 0 0
432 24 3 0.033922 8.35207 14.9357 1.95445 0 0 0
433 25 1 -0.091211 5.74788 4.48714 14.9781 0 0 0
434 25 1 -0.050311 6.83735 4.3952 13.9611 0 0 0
435 25 2 -0.174311 6.67046 5.39275 12.7869 0 0 0
436 25 2 -0.174311 6.2959 5.11687 11.4882 0 0 0
437 25 1 -0.050311 5.80606 3.80939 11.0867 0 0 0
438 25 1 -0.091211 5.57685 3.87589 9.54234 0 0 0
439 25 3 0.033922 4.83186 4.18858 14.46 0 0 0
440 25 3 0.033922 5.58644 5.45381 15.4641 0 0 0
441 25 3 0.033922 6.09384 3.77173 15.7299 0 0 0
442 25 3 0.046089 7.75281 4.50328 14.5501 0 0 0
443 25 3 0.046089 6.76256 3.36439 13.6026 0 0 0
444 25 4 0.121889 7.02284 6.37031 13.1004 0 0 0
445 25 4 0.121889 6.09476 5.96964 10.8476 0 0 0
446 25 3 0.046089 4.79741 3.69489 11.4944 0 0 0
447 25 3 0.046089 6.47817 2.98388 11.3387 0 0 0
448 25 3 0.033922 6.54329 3.87148 9.02982 0 0 0
449 25 3 0.033922 5.06597 3.02513 9.082 0 0 0
450 25 3 0.033922 5.1965 4.84609 9.20951 0 0 0
451 26 1 -0.091211 2.18402 2.52101 12.8114 0 0 0
452 26 1 -0.050311 2.93319 1.35585 13.3568 0 0 0
453 26 2 -0.174311 3.133 1.45785 14.8651 0 0 0
454 26 2 -0.174311 2.72995 0.547222 15.8004 0 0 0
455 26 1 -0.050311 2.11261 20.3989 15.5122 0 -1 0
456 26 1 -0.091211 0.538021 20.6226 15.4408 0 -1 0
457 26 3 0.033922 1.20778 2.59713 13.2991 0 0 0
458 26 3 0.033922 1.95257 2.41138 11.7479 0 0 0
459 26 3 0.033922 2.72831 3.46596 12.8982 0 0 0
460 26 3 0.046089 2.38835 0.479043 12.9948 0 0 0
461 26 3 0.046089 3.90116 1.31613 12.8487 0 0 0
462 26 4 0.121889 3.70881 2.33146 15.1538 0 0 0
463 26 4 0.121889 3.10204 0.699259 16.8086 0 0 0
464 26 3 0.046089 2.27637 19.6991 16.3369 0 -1 0
465 26 3 0.046089 2.48638 19.9628 14.5812 0 -1 0
466 26 3 0.033922 0.0474488 19.6574 15.5974 0 -1 0
467 26 3 0.033922 0.196164 21.2998 16.2289 0 -1 0
468 26 3 0.033922 0.255104 21.1712 14.5376 0 -1 0
469 27 1 -0.091211 20.3102 12.5774 12.2966 0 0 0
470 27 1 -0.050311 20.2272 11.7856 11.0449 0 0 0
471 27 2 -0.174311 21.3379 12.1457 10.073 0 0 0
472 27 2 -0.174311 21.1694 12.9248 8.90532 0 0 0
473 27 1 -0.050311 19.8694 13.4301 8.3495 0 0 0
474 27 1 -0.091211 20.0722 13.8353 6.89366 0 0 0
475 27 3 0.033922 19.542 12.2822 13.0173 0 0 0
476 27 3 0.033922 20.0927 13.6242 12.0652 0 0 0
477 27 3 0.033922 21.2803 12.439 12.7828 0 0 0
478 27 3 0.046089 20.1433 10.7045 11.1901 0 0 0
479 27 3 0.046089 19.2623 12.0629 10.6104 0 0 0
480 27 4 0.121889 22.2987 11.7584 10.3973 0 0 0
481 27 4 0.121889 22.1004 13.1643 8.40137 0 0 0
482 27 3 0.046089 19.7108 14.3581 8.90661 0 0 0
483 27 3 0.046089 19.0132 12.7676 8.50672 0 0 0
484 27 3 0.033922 20.273 12.919 6.33091 0 0 0
485 27 3 0.033922 19.1907 14.2435 6.39065 0 0 0
486 27 3 0.033922 20.9504 14.4683 6.73632 0 0 0
487 28 1 -0.091211 7.47278 2.71442 22.5341 0 0 -1
488 28 1 -0.050311 7.6916 2.0241 -1.99842 0 0 0
489 28 2 -0.174311 8.79083 1.08336 -2.20264 0 0 0
490 28 2 -0.174311 8.61649 20.9163 23.5123 0 -1 -1
491 28 1 -0.050311 7.22319 20.3056 23.4486 0 -1 -1
492 28 1 -0.091211 7.06518 18.9873 22.6816 0 -1 -1
493 28 3 0.033922 6.51554 3.24118 22.4798 0 0 -1
494 28 3 0.033922 7.59902 2.02797 21.6918 0 0 -1
495 28 3 0.033922 8.35573 3.35583 22.4586 0 0 -1
496 28 3 0.046089 7.85791 2.6924 -1.14849 0 0 0
497 28 3 0.046089 6.76251 1.50683 -1.74166 0 0 0
498 28 4 0.121889 9.77865 1.53012 -2.25477 0 0 0
499 28 4 0.121889 9.42717 20.2148 23.3423 0 -1 -1
500 28 3 0.046089 6.52016 20.9835 22.9557 0 -1 -1
501 28 3 0.046089 6.96616 20.1435 -1.36483 0 -1 0
502 28 3 0.033922 6.00326 18.7994 22.4979 0 -1 -1
503 28 3 0.033922 7.63951 18.9979 21.7506 0 -1 -1
504 28 3 0.033922 7.4188 18.0872 23.1928 0 -1 -1
505 29 1 -0.091211 11.6756 7.06986 12.8462 0 0 0
506 29 1 -0.050311 11.1298 6.52716 11.538 0 0 0
507 29 2 -0.174311 9.72585 6.92337 11.315 0 0 0
508 29 2 -0.174311 9.13317 6.58942 10.1926 0 0 0
509 29 1 -0.050311 9.65454 5.73038 9.09916 0 0 0
510 29 1 -0.091211 8.7182 5.87968 7.86048 0 0 0
511 29 3 0.033922 10.9295 7.07539 13.6462 0 0 0
512 29 3 0.033922 12.0864 8.07298 12.699 0 0 0
513 29 3 0.033922 12.5346 6.47318 13.1666 0 0 0
514 29 3 0.046089 11.8229 6.80667 10.7392 0 0 0
515 29 3 0.046089 11.172 5.43898 11.642 0 0 0
516 29 4 0.121889 9.17424 7.49822 12.0522 0 0 0
517 29 4 0.121889 8.08775 6.85978 10.0826 0 0 0
518 29 3 0.046089 9.53035 4.70029 9.44586 0 0 0
519 29 3 0.046089 10.6681 6.01787 8.8045 0 0 0
520 29 3 0.033922 8.58654 6.92181 7.55496 0 0 0
521 29 3 0.033922 9.14383 5.25817 7.06724 0 0 0
522 29 3 0.033922 7.72072 5.52153 8.13156 0 0 0
523 30 1 -0.091211 17.0671 13.3044 18.3282 0 0 0
524 30 1 -0.050311 16.72 12.3473 19.4719 0 0 0
525 30 2 -0.174311 16.5447 13.2899 20.743 0 0 0
526 30 2 -0.174311 15.413 13.7166 21.3563 0 0 0
527 30 1 -0.050311 14.0534 13.4279 20.8387 0 0 0
528 30 1 -0.091211 13.6017 12.0542 21.463 0 0 0
529 30 3 0.033922 16.5227 13.0316 17.4194 0 0 0
530 30 3 0.033922 18.1166 13.1505 18.0605 0 0 0
531 30 3 0.033922 16.8537 14.3579 18.5309 0 0 0
532 30 3 0.046089 15.782 11.8274 19.256 0 0 0
533 30 3 0.046089 17.4836 11.5721 19.5842 0 0 0
534 30 4 0.121889 17.5024 13.5082 21.2049 0 0 0
535 30 4 0.121889 15.5035 14.4711 22.1313 0 0 0
536 30 3 0.046089 14.099 13.4335 19.7457 0 0 0
537 30 3 0.046089 13.3519 14.2335 21.0748 0 0 0
538 30 3 0.033922 14.3902 11.2972 21.5075 0 0 0
539 30 3 0.033922 13.3273 12.2986 22.4933 0 0 0
540 30 3 0.033922 12.7302 11.714 20.896 0 0 0
541 31 1 -0.091211 18.6952 4.27935 16.7519 0 1 0
542 31 1 -0.050311 19.4999 3.16269 17.4646 0 1 0
543 31 2 -0.174311 20.6862 2.70132 16.6178 0 1 0
544 31 2 -0.174311 20.8714 1.48405 15.9594 0 1 0
545 31 1 -0.050311 19.6914 0.509246 16.0524 0 1 0
546 31 1 -0.091211 19.9405 20.8385 14.8658 0 0 0
547 31 3 0.033922 18.1913 3.89021 15.8624 0 1 0
548 31 3 0.033922 19.4659 4.97463 16.4065 0 1 0
549 31 3 0.033922 17.9824 4.79281 17.4038 0 1 0
550 31 3 0.046089 19.9186 3.59356 18.3787 0 1 0
551 31 3 0.046089 18.8522 2.34602 17.7968 0 1 0
552 31 4 0.121889 21.4696 3.42144 16.4037 0 1 0
553 31 4 0.121889 21.7176 1.39488 15.2855 0 1 0
554 31 3 0.046089 18.7056 0.974262 15.9591 0 1 0
555 31 3 0.046089 19.8266 21.2155 17.0208 0 0 0
556 31 3 0.033922 20.0977 21.3849 13.9313 0 0 0
557 31 3 0.033922 20.8511 20.2569 15.0368 0 0 0
558 31 3 0.033922 19.1499 20.0998 14.704 0 0 0
559 32 1 -0.091211 13.6545 19.219 5.49216 0 0 0
560 32 1 -0.050311 14.5948 19.8288 6.58117 0 0 0
561 32 2 -0.174311 15.5477 20.7671 5.83199 0 0 0
562 32 2 -0.174311 16.6303 0.185599 6.46485 0 1 0
563 32 1 -0.050311 16.9198 21.4258 7.9622 0 0 0
564 32 1 -0.091211 17.4839 1.57991 8.42324 0 1 0
565 32 3 0.033922 14.207 18.8058 4.64321 0 0 0
566 32 3 0.033922 12.9679 19.9828 5.11547 0 0 0
567 32 3 0.033922 13.0302 18.4073 5.87704 0 0 0
568 32 3 0.046089 13.9507 20.4393 7.22076 0 0 0
569 32 3 0.046089 15.0172 19.0289 7.19628 0 0 0
570 32 4 0.121889 15.4848 20.9104 4.75798 0 0 0
571 32 4 0.121889 17.2591 0.792209 5.8209 0 1 0
572 32 3 0.046089 17.6939 20.6838 8.17871 0 0 0
573 32 3 0.046089 15.9879 21.1821 8.48055 0 0 0
574 32 3 0.033922 17.8024 1.45244 9.46196 0 1 0
575 32 3 0.033922 18.3293 1.92663 7.82173 0 1 0
576 32 3 0.033922 16.6439 2.27632 8.34459 0 1 0
577 33 1 -0.091211 10.3497 14.042 6.28764 0 0 0
578 33 1 -0.050311 11.4421 14.8325 7.0542 0 0 0
579 33 2 -0.174311 11.0668 16.3256 6.82887 0 0 0
580 33 2 -0.174311 10.7383 17.195 7.85105 0 0 0
581 33 1 -0.050311 10.6008 16.9115 9.35774 0 0 0
582 33 1 -0.091211 11.9399 17.281 10.0354 0 0 0
583 33 3 0.033922 10.4038 14.4433 5.27144 0 0 0
584 33 3 0.033922 9.37474 14.3024 6.71001 0 0 0
585 33 3 0.033922 10.4432 12.9521 6.29654 0 0 0
586 33 3 0.046089 11.4981 14.5025 8.09562 0 0 0
587 33 3 0.046089 12.4932 14.654 6.80937 0 0 0
588 33 4 0.121889 11.0771 16.7018 5.81082 0 0 0
589 33 4 0.121889 10.7508 18.2659 7.67504 0 0 0
590 33 3 0.046089 10.2302 15.8907 9.48943 0 0 0
591 33 3 0.046089 9.8077 17.5612 9.7393 0 0 0
592 33 3 0.033922 12.2149 18.3136 9.80111 0 0 0
593 33 3 0.033922 11.8166 17.2173 11.1205 0 0 0
594 33 3 0.033922 12.7699 16.6525 9.69955 0 0 0
595 34 1 -0.091211 20.5264 17.1427 12.2707 0 0 0
596 34 1 -0.050311 19.9489 16.6835 13.6659 0 0 0
597 34 2 -0.174311 20.7935 17.0222 14.7927 0 0 0
598 34 2 -0.174311 20.4362 17.2575 16.1047 0 0 0
599 34 1 -0.050311 18.9585 17.268 16.626 0 0 0
600 34 1 -0.091211 19.0549 16.5222 17.8798 0 0 0
601 34 3 0.033922 20.296 18.1998 12.1089 0 0 0
602 34 3 0.033922 20.0806 16.5794 11.4457 0 0 0
603 34 3 0.033922 21.5982 16.9394 12.1879 0 0 0
604 34 3 0.046089 18.9901 17.1936 13.7971 0 0 0
605 34 3 0.046089 19.698 15.6198 13.6175 0 0 0
606 34 4 0.121889 21.8468 16.9042 14.5587 0 0 0
607 34 4 0.121889 21.2738 17.2483 16.795 0 0 0
608 34 3 0.046089 18.2559 16.8094 15.924 0 0 0
609 34 3 0.046089 18.6195 18.3003 16.7531 0 0 0
610 34 3 0.033922 19.8654 16.9009 18.5094 0 0 0
611 34 3 0.033922 18.1416 16.6515 18.4679 0 0 0
612 34 3 0.033922 19.2821 15.4674 17.6992 0 0 0
613 35 1 -0.091211 0.425564 11.0383 17.5517 0 0 0
614 35 1 -0.050311 1.71752 10.5755 16.9962 0 0 0
615 35 2 -0.174311 2.06358 9.20444 17.3614 0 0 0
616 35 2 -0.174311 2.66817 8.77387 18.5425 0 0 0
617 35 1 -0.050311 2.87818 9.65536 19.7692 0 0 0
618 35 1 -0.091211 4.31487 9.62723 20.1735 0 0 0
619 35 3 0.033922 0.283131 11.9885 17.0287 0 0 0