ITEM: TIMESTEP
77700
ITEM: NUMBER OF ATOMS
1800
ITEM: BOX BOUNDS pp pp pp
-4.7339546047018004e+00 4.3541970104700944e+01
1.1153820029700245e+00 2.0493273497030273e+01
-6.2729341498167912e-01 2.1881026914981227e+01
ITEM: ATOMS id mol type q x y z ix iy iz
1 1 1 -0.091211 2.32737 9.14219 16.1087 0 -1 0
2 1 1 -0.050311 3.42434 10.0508 15.658 0 -1 0
3 1 2 -0.174311 4.70582 9.3981 15.379 0 -1 0
4 1 2 -0.174311 5.63435 9.8194 14.4828 0 -1 0
5 1 1 -0.050311 5.57948 11.2001 13.7736 0 -1 0
6 1 1 -0.091211 4.83958 11.2209 12.4354 0 -1 0
7 1 3 0.033922 2.19765 8.3394 15.3771 0 -1 0
8 1 3 0.033922 1.34653 9.6258 16.1348 0 -1 0
9 1 3 0.033922 2.59464 8.75739 17.0972 0 -1 0
10 1 3 0.046089 3.15727 10.6525 14.7843 0 -1 0
11 1 3 0.046089 3.57641 10.7226 16.5077 0 -1 0
12 1 4 0.121889 4.82699 8.42177 15.8374 0 -1 0
13 1 4 0.121889 6.53902 9.22241 14.4265 0 -1 0
14 1 3 0.046089 6.59329 11.5419 13.5456 0 -1 0
15 1 3 0.046089 5.10037 11.9451 14.4155 0 -1 0
16 1 3 0.033922 4.98078 12.1955 11.9591 0 -1 0
17 1 3 0.033922 5.27193 10.3941 11.8644 0 -1 0
18 1 3 0.033922 3.78393 11.0243 12.6442 0 -1 0
19 2 1 -0.091211 3.87894 5.62588 10.6719 0 0 0
20 2 1 -0.050311 5.25881 6.1026 10.5212 0 0 0
21 2 2 -0.174311 6.14539 5.34028 11.4923 0 0 0
22 2 2 -0.174311 7.34277 5.80071 11.9292 0 0 0
23 2 1 -0.050311 7.96584 7.12539 11.6946 0 0 0
24 2 1 -0.091211 9.09807 7.01007 10.6431 0 0 0
25 2 3 0.033922 3.45601 6.21075 11.4939 0 0 0
26 2 3 0.033922 3.87795 4.56274 10.9293 0 0 0
27 2 3 0.033922 3.29446 5.7957 9.76293 0 0 0
28 2 3 0.046089 5.70303 5.93469 9.5358 0 0 0
29 2 3 0.046089 5.33446 7.17916 10.6998 0 0 0
30 2 4 0.121889 5.78994 4.38574 11.8671 0 0 0
31 2 4 0.121889 7.89107 5.15071 12.6037 0 0 0
32 2 3 0.046089 8.43767 7.44684 12.6277 0 0 0
33 2 3 0.046089 7.28281 7.90438 11.3436 0 0 0
34 2 3 0.033922 9.57601 7.98266 10.494 0 0 0
35 2 3 0.033922 9.82575 6.26936 10.9872 0 0 0
36 2 3 0.033922 8.70002 6.55723 9.73033 0 0 0
37 3 1 -0.091211 0.123674 2.8844 12.0747 0 0 0
38 3 1 -0.050311 1.38358 2.78943 11.1881 0 0 0
39 3 2 -0.174311 1.47472 1.38631 10.5356 0 0 0
40 3 2 -0.174311 2.53331 19.8719 10.6854 0 -1 0
41 3 1 -0.050311 3.91674 20 11.3094 0 -1 0
42 3 1 -0.091211 5.06062 20.022 10.3098 0 -1 0
43 3 3 0.033922 -0.772128 2.74956 11.4615 0 0 0
44 3 3 0.033922 0.00390695 3.90233 12.4568 0 0 0
45 3 3 0.033922 0.181803 2.21044 12.9343 0 0 0
46 3 3 0.046089 1.28456 3.46689 10.335 0 0 0
47 3 3 0.046089 2.30322 2.99303 11.7444 0 0 0
48 3 4 0.121889 0.71703 1.01328 9.85389 0 0 0
49 3 4 0.121889 2.36568 18.8751 10.2903 0 -1 0
50 3 3 0.046089 4.00228 19.2249 12.0764 0 -1 0
51 3 3 0.046089 4.00918 1.54404 11.8909 0 0 0
52 3 3 0.033922 6.03929 19.9391 10.7914 0 -1 0
53 3 3 0.033922 4.93074 19.1151 9.71205 0 -1 0
54 3 3 0.033922 5.00981 1.55904 9.71237 0 0 0
55 4 1 -0.091211 -0.775949 15.906 11.28 0 -1 0
56 4 1 -0.050311 -0.0781899 17.2019 11.7574 0 -1 0
57 4 2 -0.174311 1.09226 16.9106 12.6314 0 -1 0
58 4 2 -0.174311 1.67429 17.7082 13.6003 0 -1 0
59 4 1 -0.050311 1.26886 19.1386 13.9773 0 -1 0
60 4 1 -0.091211 0.853357 19.1404 15.4904 0 -1 0
61 4 3 0.033922 -0.191779 15.3168 10.567 0 -1 0
62 4 3 0.033922 -1.71928 16.2454 10.8423 0 -1 0
63 4 3 0.033922 -1.00907 15.2442 12.1192 0 -1 0
64 4 3 0.046089 0.196086 17.7762 10.8677 0 -1 0
65 4 3 0.046089 -0.825587 17.7886 12.2995 0 -1 0
66 4 4 0.121889 1.49615 15.906 12.557 0 -1 0
67 4 4 0.121889 2.63414 17.4317 14.0249 0 -1 0
68 4 3 0.046089 0.418156 19.3378 13.319 0 -1 0
69 4 3 0.046089 2.05644 19.8707 13.7765 0 -1 0
70 4 3 0.033922 1.73768 18.8618 16.0708 0 -1 0
71 4 3 0.033922 0.63715 20.1652 15.8061 0 -1 0
72 4 3 0.033922 0.0530487 18.4124 15.6521 0 -1 0
73 5 1 -0.091211 -2.73912 10.3186 7.82111 0 0 0
74 5 1 -0.050311 -4.08114 10.6483 7.14969 0 0 0
75 5 2 -0.174311 43.1135 9.82035 7.88338 -1 0 0
76 5 2 -0.174311 42.2535 8.87385 7.36001 -1 0 0
77 5 1 -0.050311 42.283 8.4294 5.9801 -1 0 0
78 5 1 -0.091211 41.0048 7.64537 5.66965 -1 0 0
79 5 3 0.033922 -2.8259 10.2907 8.91122 0 0 0
80 5 3 0.033922 -2.00644 11.107 7.62569 0 0 0
81 5 3 0.033922 -2.39378 9.35595 7.43306 0 0 0
82 5 3 0.046089 -4.35123 11.7022 7.26328 0 0 0
83 5 3 0.046089 -4.07181 10.4307 6.07767 0 0 0
84 5 4 0.121889 42.9655 10.0407 8.93579 -1 0 0
85 5 4 0.121889 41.5349 8.48557 8.07468 -1 0 0
86 5 3 0.046089 43.1761 7.84867 5.73159 -1 0 0
87 5 3 0.046089 42.2385 9.3363 5.37008 -1 0 0
88 5 3 0.033922 40.3362 8.46353 5.38636 -1 0 0
89 5 3 0.033922 41.1164 7.08672 4.7358 -1 0 0
90 5 3 0.033922 40.6363 7.00281 6.4746 -1 0 0
91 6 1 -0.091211 9.97225 1.70802 1.85862 0 0 1
92 6 1 -0.050311 9.37884 1.80326 0.446871 0 0 1
93 6 2 -0.174311 8.00089 1.16488 0.302383 0 0 1
94 6 2 -0.174311 7.40261 20.3875 21.5555 0 -1 0
95 6 1 -0.050311 7.89723 1.32884 20.1947 0 0 0
96 6 1 -0.091211 7.92096 2.82554 19.8531 0 0 0
97 6 3 0.033922 10.8594 2.34455 1.92433 0 0 1
98 6 3 0.033922 10.2995 20.061 2.05628 0 -1 1
99 6 3 0.033922 9.27194 2.10517 2.59919 0 0 1
100 6 3 0.046089 9.30389 2.80817 0.0212993 0 0 1
101 6 3 0.046089 10.0994 20.6353 -0.169104 0 -1 1
102 6 4 0.121889 7.47027 20.3373 1.22664 0 -1 1
103 6 4 0.121889 6.469 19.8586 21.7188 0 -1 0
104 6 3 0.046089 7.23383 20.2456 19.4572 0 -1 0
105 6 3 0.046089 8.90106 20.3091 20.0191 0 -1 0
106 6 3 0.033922 8.36677 2.9751 18.8655 0 0 0
107 6 3 0.033922 6.89112 3.15113 19.6799 0 0 0
108 6 3 0.033922 8.3839 3.37166 20.6802 0 0 0
109 7 1 -0.091211 31.8475 1.46821 -0.289492 -1 1 0
110 7 1 -0.050311 32.9177 1.46944 21.2391 -1 1 -1
111 7 2 -0.174311 32.9963 2.9143 20.7962 -1 1 -1
112 7 2 -0.174311 33.814 3.40363 19.7285 -1 1 -1
113 7 1 -0.050311 34.5871 2.53417 18.8766 -1 1 -1
114 7 1 -0.091211 34.3558 2.98846 17.4872 -1 1 -1
115 7 3 0.033922 30.859 1.65266 21.788 -1 1 -1
116 7 3 0.033922 32.0523 2.16132 0.531638 -1 1 0
117 7 3 0.033922 31.9189 19.8303 0.110094 -1 0 0
118 7 3 0.046089 33.9001 20.6138 21.6599 -1 0 -1
119 7 3 0.046089 32.735 20.162 20.4064 -1 0 -1
120 7 4 0.121889 32.3881 3.62204 21.3504 -1 1 -1
121 7 4 0.121889 33.7217 4.47689 19.596 -1 1 -1
122 7 3 0.046089 34.3798 1.46247 18.9478 -1 1 -1
123 7 3 0.046089 35.6591 2.57806 19.0897 -1 1 -1
124 7 3 0.033922 34.8039 3.9769 17.3503 -1 1 -1
125 7 3 0.033922 34.811 2.27053 16.7988 -1 1 -1
126 7 3 0.033922 33.2881 2.96595 17.2504 -1 1 -1
127 8 1 -0.091211 -4.58151 6.95514 0.674483 0 0 1
128 8 1 -0.050311 -4.70306 8.38673 1.07768 0 0 1
129 8 2 -0.174311 42.5358 8.51398 2.21539 -1 0 1
130 8 2 -0.174311 41.5261 9.40271 2.29176 -1 0 1
131 8 1 -0.050311 41.2895 10.4612 1.24683 -1 0 1
132 8 1 -0.091211 39.9482 10.3096 0.461321 -1 0 1
133 8 3 0.033922 42.7242 6.51329 0.42944 -1 0 1
134 8 3 0.033922 -4.16005 6.28437 1.42883 0 0 1
135 8 3 0.033922 -4.0153 6.92803 -0.261089 0 0 1
136 8 3 0.046089 -3.78291 8.86442 1.42659 0 0 1
137 8 3 0.046089 43.2578 8.83592 0.131332 -1 0 1
138 8 4 0.121889 42.6072 7.8284 3.05376 -1 0 1
139 8 4 0.121889 40.8231 9.3932 3.11863 -1 0 1
140 8 3 0.046089 42.1198 10.6068 0.549624 -1 0 1
141 8 3 0.046089 41.3509 11.3818 1.83444 -1 0 1
142 8 3 0.033922 39.5088 11.2884 0.247932 -1 0 1
143 8 3 0.033922 40.0205 9.54094 -0.313596 -1 0 1
144 8 3 0.033922 39.1583 9.8904 1.09133 -1 0 1
145 9 1 -0.091211 36.2372 7.87106 21.686 -1 1 0
146 9 1 -0.050311 36.6126 6.44582 21.8003 -1 1 0
147 9 2 -0.174311 37.6182 6.20221 0.374745 -1 1 1
148 9 2 -0.174311 37.9646 5.01471 0.875084 -1 1 1
149 9 1 -0.050311 37.3523 3.75996 0.355055 -1 1 1
150 9 1 -0.091211 37.6009 2.58261 1.27805 -1 1 1
151 9 3 0.033922 36.0251 8.27652 0.171248 -1 1 1
152 9 3 0.033922 35.3845 7.94779 21.0051 -1 1 0
153 9 3 0.033922 37.1602 8.3256 21.3144 -1 1 0
154 9 3 0.046089 35.7135 5.83021 21.8966 -1 1 0
155 9 3 0.046089 37.0346 6.08144 20.8591 -1 1 0
156 9 4 0.121889 38.0021 7.13519 0.774894 -1 1 1
157 9 4 0.121889 38.7233 4.93966 1.64762 -1 1 1
158 9 3 0.046089 37.6904 3.62777 -0.676848 -1 1 1
159 9 3 0.046089 36.3082 4.05784 0.22174 -1 1 1
160 9 3 0.033922 37.6863 2.86113 2.33246 -1 1 1
161 9 3 0.033922 36.7695 1.89923 1.08251 -1 1 1
162 9 3 0.033922 38.4879 2.0781 0.883812 -1 1 1
163 10 1 -0.091211 4.80235 10.7726 8.02526 0 0 1
164 10 1 -0.050311 6.25971 10.1328 7.98173 0 0 1
165 10 2 -0.174311 7.38278 11.1073 7.53656 0 0 1
166 10 2 -0.174311 8.31833 10.7888 6.61551 0 0 1
167 10 1 -0.050311 8.36059 9.43661 5.86804 0 0 1
168 10 1 -0.091211 8.95872 9.46855 4.43785 0 0 1
169 10 3 0.033922 4.85814 11.6786 8.63573 0 0 1
170 10 3 0.033922 4.13923 10.0325 8.48248 0 0 1
171 10 3 0.033922 4.45276 11.0723 7.03299 0 0 1
172 10 3 0.046089 6.4204 9.77768 9.00385 0 0 1
173 10 3 0.046089 6.20553 9.31292 7.25959 0 0 1
174 10 4 0.121889 7.47275 12.1077 7.94768 0 0 1
175 10 4 0.121889 9.08744 11.5255 6.40642 0 0 1
176 10 3 0.046089 7.39498 8.94899 5.70547 0 0 1
177 10 3 0.046089 8.89603 8.69471 6.46761 0 0 1
178 10 3 0.033922 8.36142 10.1985 3.88371 0 0 1
179 10 3 0.033922 9.98995 9.83197 4.40489 0 0 1
180 10 3 0.033922 8.91215 8.42954 4.09894 0 0 1
181 11 1 -0.091211 -1.23056 12.3519 12.9131 0 0 0
182 11 1 -0.050311 -2.46945 12.3381 13.8362 0 0 0
183 11 2 -0.174311 -2.84152 13.6871 14.4453 0 0 0
184 11 2 -0.174311 -2.16527 14.3867 15.411 0 0 0
185 11 1 -0.050311 -0.920831 13.8918 16.1614 0 0 0
186 11 1 -0.091211 -1.09342 14.1329 17.688 0 0 0
187 11 3 0.033922 -1.43802 13.0302 12.0804 0 0 0
188 11 3 0.033922 -1.04673 11.3841 12.4375 0 0 0
189 11 3 0.033922 -0.31893 12.5446 13.4862 0 0 0
190 11 3 0.046089 -3.29582 12.088 13.1645 0 0 0
191 11 3 0.046089 -2.44018 11.5618 14.6064 0 0 0
192 11 4 0.121889 -3.77531 14.1546 14.1496 0 0 0
193 11 4 0.121889 -2.52545 15.3653 15.7119 0 0 0
194 11 3 0.046089 -0.0972264 14.442 15.697 0 0 0
195 11 3 0.046089 -0.722888 12.8487 15.8981 0 0 0
196 11 3 0.033922 -2.03469 13.7053 18.0454 0 0 0
197 11 3 0.033922 -0.217778 13.7372 18.2108 0 0 0
198 11 3 0.033922 -1.24693 15.1954 17.8983 0 0 0
199 12 1 -0.091211 2.19567 9.04443 10.9296 0 0 0
200 12 1 -0.050311 0.736859 8.64589 11.3223 0 0 0
201 12 2 -0.174311 0.480513 7.21248 11.0528 0 0 0
202 12 2 -0.174311 -0.427409 6.64492 10.1609 0 0 0
203 12 1 -0.050311 -1.36782 7.38681 9.24371 0 0 0
204 12 1 -0.091211 -1.57527 6.51144 7.9653 0 0 0
205 12 3 0.033922 2.38118 10.1203 10.9972 0 0 0
206 12 3 0.033922 2.47927 8.90713 9.88206 0 0 0
207 12 3 0.033922 2.90111 8.44331 11.5107 0 0 0
208 12 3 0.046089 0.690319 8.90816 12.3833 0 0 0
209 12 3 0.046089 0.155238 9.37092 10.7455 0 0 0
210 12 4 0.121889 1.14507 6.55588 11.6052 0 0 0
211 12 4 0.121889 -0.410281 5.55978 10.172 0 0 0
212 12 3 0.046089 -0.931027 8.32743 8.89585 0 0 0
213 12 3 0.046089 -2.27993 7.57919 9.81611 0 0 0
214 12 3 0.033922 -0.622338 6.31601 7.46496 0 0 0
215 12 3 0.033922 -2.0844 5.56593 8.17356 0 0 0
216 12 3 0.033922 -2.28886 7.05731 7.34126 0 0 0
217 13 1 -0.091211 43.431 15.7553 7.89811 -1 0 1
218 13 1 -0.050311 -3.91948 14.8055 7.14935 0 0 1
219 13 2 -0.174311 -2.94772 14.126 8.11864 0 0 1
220 13 2 -0.174311 -1.55612 14.366 8.25599 0 0 1
221 13 1 -0.050311 -0.95057 15.3704 7.3364 0 0 1
222 13 1 -0.091211 0.558976 15.4945 7.47357 0 0 1
223 13 3 0.033922 42.6463 15.2755 8.49036 -1 0 1
224 13 3 0.033922 42.8955 16.3679 7.16697 -1 0 1
225 13 3 0.033922 -4.29212 16.4271 8.56115 0 0 1
226 13 3 0.046089 -4.49945 14.0415 6.62345 0 0 1
227 13 3 0.046089 -3.35884 15.3789 6.40537 0 0 1
228 13 4 0.121889 -3.12601 13.3471 8.85319 0 0 1
229 13 4 0.121889 -0.92989 13.8299 8.96202 0 0 1
230 13 3 0.046089 -1.45234 16.3158 7.56205 0 0 1
231 13 3 0.046089 -1.21066 15.2069 6.28651 0 0 1
232 13 3 0.033922 1.07448 14.6441 7.01795 0 0 1
233 13 3 0.033922 0.978464 16.4073 7.0406 0 0 1
234 13 3 0.033922 0.760264 15.4928 8.5488 0 0 1
235 14 1 -0.091211 17.1916 8.00009 8.60057 0 0 0
236 14 1 -0.050311 16.0678 8.60929 7.76351 0 0 0
237 14 2 -0.174311 14.8336 8.51398 8.52856 0 0 0
238 14 2 -0.174311 13.8256 9.36714 8.47712 0 0 0
239 14 1 -0.050311 13.7216 10.6476 7.67279 0 0 0
240 14 1 -0.091211 12.3222 11.2489 7.90516 0 0 0
241 14 3 0.033922 16.841 7.04488 9.00211 0 0 0
242 14 3 0.033922 17.5043 8.66703 9.4093 0 0 0
243 14 3 0.033922 18.0857 7.80142 8.00247 0 0 0
244 14 3 0.046089 16.318 9.58899 7.34615 0 0 0
245 14 3 0.046089 15.9858 8.00655 6.85434 0 0 0
246 14 4 0.121889 14.6596 7.60686 9.09849 0 0 0
247 14 4 0.121889 13.1037 9.03039 9.21435 0 0 0
248 14 3 0.046089 13.9832 10.5233 6.61792 0 0 0
249 14 3 0.046089 14.4008 11.4313 8.02061 0 0 0
250 14 3 0.033922 12.3031 12.2861 7.55818 0 0 0
251 14 3 0.033922 11.6699 10.634 7.27824 0 0 0
252 14 3 0.033922 12.0043 11.2239 8.95156 0 0 0
253 15 1 -0.091211 3.66701 3.19973 21.1596 0 1 0
254 15 1 -0.050311 2.41666 2.41546 20.7099 0 1 0
255 15 2 -0.174311 1.68874 1.9577 -0.627272 0 1 1
256 15 2 -0.174311 1.76152 20.0431 -0.0137424 0 0 1
257 15 1 -0.050311 2.62393 18.9098 -0.46548 0 0 1
258 15 1 -0.091211 3.92758 18.9421 0.352024 0 0 1
259 15 3 0.033922 3.36831 4.07581 21.7425 0 1 0
260 15 3 0.033922 4.12184 3.62525 20.2603 0 1 0
261 15 3 0.033922 4.40523 2.64864 21.7495 0 1 0
262 15 3 0.046089 1.84181 3.1164 20.0977 0 1 0
263 15 3 0.046089 2.74002 1.62914 20.0216 0 1 0
264 15 4 0.121889 1.14085 2.78648 -0.190321 0 1 1
265 15 4 0.121889 1.05345 19.7737 0.76348 0 0 1
266 15 3 0.046089 2.82486 19.1197 20.9882 0 0 0
267 15 3 0.046089 1.99253 18.019 -0.398607 0 0 1
268 15 3 0.033922 4.3736 19.9407 0.372077 0 0 1
269 15 3 0.033922 3.65088 18.6424 1.36704 0 0 1
270 15 3 0.033922 4.68434 18.2424 -0.0145639 0 0 1
271 16 1 -0.091211 12.0242 4.97503 7.4188 0 1 0
272 16 1 -0.050311 13.1099 5.41516 6.46136 0 1 0
273 16 2 -0.174311 12.8324 6.75417 5.84145 0 1 0
274 16 2 -0.174311 12.5364 7.11694 4.56868 0 1 0
275 16 1 -0.050311 12.4574 6.22363 3.3651 0 1 0
276 16 1 -0.091211 11.296 6.69596 2.39612 0 1 0
277 16 3 0.033922 11.1305 4.92001 6.7903 0 1 0
278 16 3 0.033922 11.898 5.59384 8.31198 0 1 0
279 16 3 0.033922 12.2541 4.00792 7.87532 0 1 0
280 16 3 0.046089 13.9806 5.49604 7.11859 0 1 0
281 16 3 0.046089 13.2617 4.70739 5.64122 0 1 0
282 16 4 0.121889 12.8861 7.56089 6.56553 0 1 0
283 16 4 0.121889 12.3899 8.15543 4.28933 0 1 0
284 16 3 0.046089 12.3371 5.17491 3.65198 0 1 0
285 16 3 0.046089 13.3814 6.34525 2.79237 0 1 0
286 16 3 0.033922 11.6884 7.63072 1.9853 0 1 0
287 16 3 0.033922 10.9937 6.03368 1.57966 0 1 0
288 16 3 0.033922 10.4145 6.92263 3.00294 0 1 0
289 17 1 -0.091211 9.98375 12.2752 10.3308 0 0 0
290 17 1 -0.050311 9.65362 12.4296 11.7559 0 0 0
291 17 2 -0.174311 10.9191 12.0629 12.4523 0 0 0
292 17 2 -0.174311 11.1993 11.1728 13.4842 0 0 0
293 17 1 -0.050311 10.1093 10.3575 14.1987 0 0 0
294 17 1 -0.091211 10.3581 10.3321 15.6649 0 0 0
295 17 3 0.033922 9.16033 12.6399 9.70981 0 0 0
296 17 3 0.033922 10.1318 11.2257 10.0606 0 0 0
297 17 3 0.033922 10.8551 12.8933 10.0957 0 0 0
298 17 3 0.046089 9.40216 13.4579 12.0315 0 0 0
299 17 3 0.046089 8.8625 11.7174 12.008 0 0 0
300 17 4 0.121889 11.766 12.6504 12.1123 0 0 0
301 17 4 0.121889 12.261 11.0952 13.6959 0 0 0
302 17 3 0.046089 10.0716 9.34512 13.7861 0 0 0
303 17 3 0.046089 9.15134 10.8802 14.1234 0 0 0
304 17 3 0.033922 11.3398 9.88805 15.8538 0 0 0
305 17 3 0.033922 10.3504 11.3829 15.9688 0 0 0
306 17 3 0.033922 9.55008 9.79098 16.1658 0 0 0
307 18 1 -0.091211 31.1775 4.38413 15.2012 -1 0 1
308 18 1 -0.050311 31.9471 4.12135 13.9956 -1 0 1
309 18 2 -0.174311 32.7372 5.27839 13.5654 -1 0 1
310 18 2 -0.174311 33.2097 5.38024 12.3199 -1 0 1
311 18 1 -0.050311 32.9984 4.43208 11.1986 -1 0 1
312 18 1 -0.091211 33.6648 5.05664 9.91648 -1 0 1
313 18 3 0.033922 30.5071 3.56472 15.4763 -1 0 1
314 18 3 0.033922 30.5802 5.2844 15.03 -1 0 1
315 18 3 0.033922 31.8257 4.64905 16.0415 -1 0 1
316 18 3 0.046089 32.5309 3.22132 14.2094 -1 0 1
317 18 3 0.046089 31.2881 3.85431 13.1643 -1 0 1
318 18 4 0.121889 32.9682 6.06673 14.2748 -1 0 1
319 18 4 0.121889 33.7656 6.27719 12.066 -1 0 1
320 18 3 0.046089 31.9475 4.21516 10.9863 -1 0 1
321 18 3 0.046089 33.549 3.50913 11.4026 -1 0 1
322 18 3 0.033922 33.1751 5.99034 9.62496 -1 0 1
323 18 3 0.033922 34.7329 5.28151 9.98858 -1 0 1
324 18 3 0.033922 33.552 4.3335 9.1035 -1 0 1
325 19 1 -0.091211 12.3939 11.6133 3.70125 0 0 0
326 19 1 -0.050311 11.196 11.8493 2.80975 0 0 0
327 19 2 -0.174311 11.0658 10.7487 1.82732 0 0 0
328 19 2 -0.174311 10.099 10.6034 0.881157 0 0 0
329 19 1 -0.050311 9.07624 11.6048 0.623627 0 0 0
330 19 1 -0.091211 7.73554 10.9667 0.573279 0 0 0
331 19 3 0.033922 12.4098 12.3747 4.48655 0 0 0
332 19 3 0.033922 13.3171 11.6538 3.1158 0 0 0
333 19 3 0.033922 12.439 10.6365 4.19153 0 0 0
334 19 3 0.046089 10.3091 11.9378 3.44395 0 0 0
335 19 3 0.046089 11.405 12.7683 2.25451 0 0 0
336 19 4 0.121889 11.8008 9.95349 1.90093 0 0 0
337 19 4 0.121889 10.1037 9.67793 0.314214 0 0 0
338 19 3 0.046089 9.27453 12.0638 -0.349366 0 0 0
339 19 3 0.046089 9.04138 12.384 1.39061 0 0 0
340 19 3 0.033922 7.60261 10.3949 1.49626 0 0 0
341 19 3 0.033922 6.92665 11.7007 0.633598 0 0 0
342 19 3 0.033922 7.62986 10.3492 -0.323427 0 0 0
343 20 1 -0.091211 9.47188 2.63063 11.0981 0 0 0
344 20 1 -0.050311 9.54733 2.41673 9.58269 0 0 0
345 20 2 -0.174311 10.7758 1.72089 9.25039 0 0 0
346 20 2 -0.174311 11.2863 1.48788 7.99116 0 0 0
347 20 1 -0.050311 10.5461 1.83836 6.73911 0 0 0
348 20 1 -0.091211 11.5917 1.83229 5.60408 0 0 0
349 20 3 0.033922 10.439 3.0132 11.4372 0 0 0
350 20 3 0.033922 9.29445 1.67788 11.6054 0 0 0
351 20 3 0.033922 8.66797 3.35289 11.2674 0 0 0
352 20 3 0.046089 8.68006 1.86243 9.21228 0 0 0
353 20 3 0.046089 9.46312 3.36788 9.04903 0 0 0
354 20 4 0.121889 11.4621 1.36873 10.014 0 0 0
355 20 4 0.121889 12.2809 20.4314 7.98035 0 -1 0
356 20 3 0.046089 10.0957 2.83275 6.809 0 0 0
357 20 3 0.046089 9.68045 20.5484 6.70377 0 -1 0
358 20 3 0.033922 12.3426 2.57085 5.89964 0 0 0
359 20 3 0.033922 12.1272 20.2568 5.5734 0 -1 0
360 20 3 0.033922 11.1664 2.06754 4.6241 0 0 0
361 21 1 -0.091211 -2.60595 3.63403 21.5202 0 0 0
362 21 1 -0.050311 -2.18556 2.25235 21.428 0 0 0
363 21 2 -0.174311 -2.32464 1.50744 0.161566 0 0 1
364 21 2 -0.174311 -2.2726 19.5002 0.320998 0 -1 1
365 21 1 -0.050311 -1.93546 18.6152 21.6754 0 -1 0
366 21 1 -0.091211 -1.65707 17.15 -0.271473 0 -1 1
367 21 3 0.033922 -3.57427 3.79894 -0.506711 0 0 1
368 21 3 0.033922 -2.75041 4.11512 20.5484 0 0 0
369 21 3 0.033922 -1.90403 4.13407 -0.314431 0 0 1
370 21 3 0.046089 -2.88356 1.87544 20.6748 0 0 0
371 21 3 0.046089 -1.19979 2.17052 20.9609 0 0 0
372 21 4 0.121889 -2.32348 2.05614 1.09802 0 0 1
373 21 4 0.121889 -2.3436 19.0912 1.32385 0 -1 1
374 21 3 0.046089 -1.06231 18.8835 21.0736 0 -1 0
375 21 3 0.046089 -2.74044 18.633 20.9349 0 -1 0
376 21 3 0.033922 -2.51303 16.6979 0.237977 0 -1 1
377 21 3 0.033922 -1.34852 16.5127 21.4031 0 -1 0
378 21 3 0.033922 -0.931023 17.0917 0.54467 0 -1 1
379 22 1 -0.091211 4.45477 15.4166 14.4262 0 -1 0
380 22 1 -0.050311 3.65548 14.6612 15.489 0 -1 0
381 22 2 -0.174311 4.32506 14.8459 16.7959 0 -1 0
382 22 2 -0.174311 3.73239 15.2101 17.9374 0 -1 0
383 22 1 -0.050311 2.28635 15.589 18.0214 0 -1 0
384 22 1 -0.091211 2.00821 16.4877 19.2622 0 -1 0
385 22 3 0.033922 3.83263 15.49 13.5294 0 -1 0
386 22 3 0.033922 5.3677 14.8587 14.1985 0 -1 0
387 22 3 0.033922 4.60607 16.4373 14.7893 0 -1 0
388 22 3 0.046089 2.60853 14.969 15.565 0 -1 0
389 22 3 0.046089 3.58956 13.5814 15.3273 0 -1 0
390 22 4 0.121889 5.40282 14.7265 16.8428 0 -1 0
391 22 4 0.121889 4.38408 15.3856 18.7874 0 -1 0
392 22 3 0.046089 1.67527 14.6853 18.1023 0 -1 0
393 22 3 0.046089 2.07919 16.1325 17.095 0 -1 0
394 22 3 0.033922 2.33461 15.8703 20.1042 0 -1 0
395 22 3 0.033922 2.46895 17.4768 19.1848 0 -1 0
396 22 3 0.033922 0.941752 16.7003 19.381 0 -1 0
397 23 1 -0.091211 1.10655 6.24843 4.09872 0 0 0
398 23 1 -0.050311 1.01138 7.54834 4.79516 0 0 0
399 23 2 -0.174311 -0.35983 8.14948 4.60518 0 0 0
400 23 2 -0.174311 -0.575994 9.49423 4.94573 0 0 0
401 23 1 -0.050311 0.449734 10.353 5.58549 0 0 0
402 23 1 -0.091211 0.146214 11.8424 5.45035 0 0 0
403 23 3 0.033922 1.98715 5.64938 4.34828 0 0 0
404 23 3 0.033922 1.0002 6.37288 3.01713 0 0 0
405 23 3 0.033922 0.270753 5.61805 4.416 0 0 0
406 23 3 0.046089 1.21339 7.31174 5.84389 0 0 0
407 23 3 0.046089 1.82087 8.20796 4.46926 0 0 0
408 23 4 0.121889 -1.24949 7.63434 4.25714 0 0 0
409 23 4 0.121889 -1.52412 9.94063 4.6633 0 0 0
410 23 3 0.046089 1.47212 10.1726 5.24084 0 0 0
411 23 3 0.046089 0.4979 10.114 6.65189 0 0 0
412 23 3 0.033922 -0.847436 12.024 5.87023 0 0 0
413 23 3 0.033922 0.84007 12.4492 6.03944 0 0 0
414 23 3 0.033922 0.109834 12.1514 4.40162 0 0 0
415 24 1 -0.091211 1.76632 15.0736 3.8727 0 0 0
416 24 1 -0.050311 2.85733 14.9772 2.77336 0 0 0
417 24 2 -0.174311 4.18891 15.2485 3.24229 0 0 0
418 24 2 -0.174311 5.23111 14.3164 3.40358 0 0 0
419 24 1 -0.050311 4.99999 12.7866 3.33523 0 0 0
420 24 1 -0.091211 6.27453 12.0521 3.76565 0 0 0
421 24 3 0.033922 2.02047 14.368 4.66903 0 0 0
422 24 3 0.033922 0.822137 14.7139 3.45353 0 0 0
423 24 3 0.033922 1.71238 16.0913 4.27031 0 0 0
424 24 3 0.046089 2.79441 13.9351 2.44702 0 0 0
425 24 3 0.046089 2.76211 15.6227 1.89536 0 0 0
426 24 4 0.121889 4.34466 16.3208 3.30392 0 0 0
427 24 4 0.121889 6.26676 14.5985 3.56437 0 0 0
428 24 3 0.046089 4.68103 12.5553 2.31473 0 0 0
429 24 3 0.046089 4.26283 12.5225 4.09907 0 0 0
430 24 3 0.033922 7.19864 12.2179 3.20426 0 0 0
431 24 3 0.033922 6.58361 12.3004 4.7852 0 0 0
432 24 3 0.033922 6.09394 10.9787 3.87394 0 0 0
433 25 1 -0.091211 0.16251 5.90133 14.48 0 0 0
434 25 1 -0.050311 1.44876 5.17949 14.8682 0 0 0
435 25 2 -0.174311 1.11793 4.16441 15.9808 0 0 0
436 25 2 -0.174311 2.10202 3.73074 16.8164 0 0 0
437 25 1 -0.050311 3.60181 4.02996 16.7848 0 0 0
438 25 1 -0.091211 4.50793 2.82023 16.7763 0 0 0
439 25 3 0.033922 -0.598778 5.13858 14.2922 0 0 0
440 25 3 0.033922 0.225451 6.62175 13.6592 0 0 0
441 25 3 0.033922 -0.157187 6.50373 15.3353 0 0 0
442 25 3 0.046089 1.87525 4.72368 13.9699 0 0 0
443 25 3 0.046089 2.13522 5.91617 15.2956 0 0 0
444 25 4 0.121889 0.0640503 4.09942 16.232 0 0 0
445 25 4 0.121889 1.68088 3.16566 17.6419 0 0 0
446 25 3 0.046089 3.9467 4.72447 17.5564 0 0 0
447 25 3 0.046089 3.82027 4.50096 15.822 0 0 0
448 25 3 0.033922 4.43593 2.28562 15.8246 0 0 0
449 25 3 0.033922 5.58162 2.95169 16.9392 0 0 0
450 25 3 0.033922 4.23288 2.12887 17.5782 0 0 0
451 26 1 -0.091211 0.752583 13.8311 21.6274 0 -1 0
452 26 1 -0.050311 1.10006 12.7339 0.0990396 0 -1 1
453 26 2 -0.174311 0.335482 11.4955 -0.169963 0 -1 1
454 26 2 -0.174311 -0.84795 11.1634 0.413307 0 -1 1
455 26 1 -0.050311 -1.6787 12.087 1.23049 0 -1 1
456 26 1 -0.091211 -3.23227 12.0236 0.820055 0 -1 1
457 26 3 0.033922 0.803448 13.4235 20.6135 0 -1 0
458 26 3 0.033922 1.50801 14.5833 21.8727 0 -1 0
459 26 3 0.033922 -0.209047 14.2503 21.9375 0 -1 0
460 26 3 0.046089 2.16337 12.477 0.0953868 0 -1 1
461 26 3 0.046089 0.887178 13.0725 1.11719 0 -1 1
462 26 4 0.121889 0.889797 10.8063 21.7093 0 -1 0
463 26 4 0.121889 -1.21623 10.1776 0.147751 0 -1 1
464 26 3 0.046089 -1.387 13.1324 1.09435 0 -1 1
465 26 3 0.046089 -1.5461 11.8132 2.28123 0 -1 1
466 26 3 0.033922 -3.81879 12.5855 1.55272 0 -1 1
467 26 3 0.033922 -3.42121 12.4367 -0.175046 0 -1 1
468 26 3 0.033922 -3.55514 10.9794 0.866071 0 -1 1
469 27 1 -0.091211 14.2309 14.845 1.09389 0 0 0
470 27 1 -0.050311 15.5054 14.86 0.233796 0 0 0
471 27 2 -0.174311 15.9658 16.2036 -0.244912 0 0 0
472 27 2 -0.174311 17.2363 16.3771 21.837 0 0 -1
473 27 1 -0.050311 18.2767 15.3463 21.6121 0 0 -1
474 27 1 -0.091211 18.4246 14.9797 20.1394 0 0 -1
475 27 3 0.033922 13.9916 13.8083 1.34792 0 0 0
476 27 3 0.033922 13.4016 15.2416 0.500828 0 0 0
477 27 3 0.033922 14.3426 15.3595 2.0528 0 0 0
478 27 3 0.046089 16.3159 14.3367 0.749297 0 0 0
479 27 3 0.046089 15.3535 14.2399 21.8538 0 0 -1
480 27 4 0.121889 15.3051 17.0435 -0.0551274 0 0 0
481 27 4 0.121889 17.4363 17.4436 21.8121 0 0 -1
482 27 3 0.046089 18.0242 14.3974 -0.413986 0 0 0
483 27 3 0.046089 19.227 15.6985 -0.48442 0 0 0
484 27 3 0.033922 18.543 15.9255 19.6028 0 0 -1
485 27 3 0.033922 19.3565 14.4089 20.0905 0 0 -1
486 27 3 0.033922 17.5916 14.3726 19.7731 0 0 -1
487 28 1 -0.091211 7.75324 15.3059 21.5208 0 -1 -1
488 28 1 -0.050311 7.12596 15.4208 0.363555 0 -1 0
489 28 2 -0.174311 7.52882 16.7006 1.00437 0 -1 0
490 28 2 -0.174311 8.54987 16.7576 1.96942 0 -1 0
491 28 1 -0.050311 9.52525 15.7108 2.33799 0 -1 0
492 28 1 -0.091211 10.9066 16.2851 2.49116 0 -1 0
493 28 3 0.033922 7.30178 14.557 20.8636 0 -1 -1
494 28 3 0.033922 8.84159 15.2576 21.4219 0 -1 -1
495 28 3 0.033922 7.46651 16.2532 21.0551 0 -1 -1
496 28 3 0.046089 6.03776 15.3118 0.339689 0 -1 0
497 28 3 0.046089 7.41496 14.5245 0.920097 0 -1 0
498 28 4 0.121889 7.05385 17.6211 0.680433 0 -1 0
499 28 4 0.121889 8.8705 17.7486 2.27442 0 -1 0
500 28 3 0.046089 9.60275 15.015 1.49753 0 -1 0
501 28 3 0.046089 9.23112 15.1556 3.23341 0 -1 0
502 28 3 0.033922 11.6612 15.5005 2.5988 0 -1 0
503 28 3 0.033922 11.169 16.8675 1.60313 0 -1 0
504 28 3 0.033922 11.0802 16.9613 3.33334 0 -1 0
505 29 1 -0.091211 4.87959 7.72979 4.72988 0 0 0
506 29 1 -0.050311 5.68269 6.79373 3.93486 0 0 0
507 29 2 -0.174311 6.69244 7.30679 2.9629 0 0 0
508 29 2 -0.174311 7.33668 6.62397 1.99737 0 0 0
509 29 1 -0.050311 7.07145 5.15641 1.71097 0 0 0
510 29 1 -0.091211 6.18476 4.95329 0.541004 0 0 0
511 29 3 0.033922 4.16538 8.25085 4.08567 0 0 0
512 29 3 0.033922 5.4709 8.55671 5.13379 0 0 0
513 29 3 0.033922 4.28276 7.26298 5.51887 0 0 0
514 29 3 0.046089 6.27906 6.24888 4.67249 0 0 0
515 29 3 0.046089 5.01747 6.07214 3.45174 0 0 0
516 29 4 0.121889 6.85194 8.37496 3.07019 0 0 0
517 29 4 0.121889 8.08335 7.1113 1.3785 0 0 0
518 29 3 0.046089 6.59046 4.72463 2.59349 0 0 0
519 29 3 0.046089 8.03 4.65023 1.56415 0 0 0
520 29 3 0.033922 5.1795 5.34314 0.725602 0 0 0
521 29 3 0.033922 6.56024 5.41685 -0.375921 0 0 0
522 29 3 0.033922 6.09399 3.87105 0.410328 0 0 0
523 30 1 -0.091211 3.56087 4.18067 7.11503 0 1 1
524 30 1 -0.050311 2.73321 2.95308 7.34207 0 1 1
525 30 2 -0.174311 1.37796 3.0395 6.59561 0 1 1
526 30 2 -0.174311 0.988117 2.30643 5.52578 0 1 1
527 30 1 -0.050311 1.80806 1.32315 4.82929 0 1 1
528 30 1 -0.091211 1.36817 1.19207 3.36292 0 1 1
529 30 3 0.033922 2.94521 5.08468 7.13261 0 1 1
530 30 3 0.033922 3.9995 4.12367 6.11454 0 1 1
531 30 3 0.033922 4.23798 4.31182 7.96412 0 1 1
532 30 3 0.046089 3.26439 2.04406 7.04522 0 1 1
533 30 3 0.046089 2.58382 2.91531 8.42507 0 1 1
534 30 4 0.121889 0.637547 3.71622 7.01013 0 1 1
535 30 4 0.121889 0.0127875 2.4957 5.08885 0 1 1
536 30 3 0.046089 1.58301 19.6994 5.20693 0 0 1
537 30 3 0.046089 2.86929 1.55831 4.95221 0 1 1
538 30 3 0.033922 1.90629 19.7428 2.89093 0 0 1
539 30 3 0.033922 0.299999 20.3439 3.29571 0 0 1
540 30 3 0.033922 1.55438 2.12109 2.81627 0 1 1
541 31 1 -0.091211 19.824 20.2996 0.594876 0 0 1
542 31 1 -0.050311 20.4652 20.4754 21.6985 0 0 0
543 31 2 -0.174311 20.6225 19.0863 21.1192 0 0 0
544 31 2 -0.174311 20.7772 18.7722 19.7447 0 0 0
545 31 1 -0.050311 20.8675 19.8537 18.7021 0 0 0
546 31 1 -0.091211 22.1288 19.5527 17.8662 0 0 0
547 31 3 0.033922 19.665 1.89209 1.07414 0 1 1
548 31 3 0.033922 20.4733 19.6779 1.21813 0 0 1
549 31 3 0.033922 18.8998 19.7164 0.643101 0 0 1
550 31 3 0.046089 19.7328 1.62932 21.0842 0 1 0
551 31 3 0.046089 21.3778 1.69897 21.653 0 1 0
552 31 4 0.121889 20.692 18.2991 21.8631 0 0 0
553 31 4 0.121889 21.0943 17.7803 19.4387 0 0 0
554 31 3 0.046089 20.9062 1.48934 19.1118 0 1 0
555 31 3 0.046089 19.9764 19.7491 18.0764 0 0 0
556 31 3 0.033922 23.0237 19.8065 18.4419 0 0 0
557 31 3 0.033922 22.0728 18.488 17.6219 0 0 0
558 31 3 0.033922 22.0851 20.1548 16.9539 0 0 0
559 32 1 -0.091211 16.765 3.04968 2.76188 0 1 0
560 32 1 -0.050311 15.7443 2.77553 1.73133 0 1 0
561 32 2 -0.174311 15.5238 3.86163 0.723825 0 1 0
562 32 2 -0.174311 14.5386 3.86165 -0.137814 0 1 0
563 32 1 -0.050311 13.4374 2.8487 -0.318674 0 1 0
564 32 1 -0.091211 12.6943 3.05267 20.9051 0 1 -1
565 32 3 0.033922 16.9198 2.19052 3.42102 0 1 0
566 32 3 0.033922 16.4003 3.78431 3.48571 0 1 0
567 32 3 0.033922 17.6935 3.33475 2.25868 0 1 0
568 32 3 0.046089 16.0676 1.82435 1.29851 0 1 0
569 32 3 0.046089 14.742 2.61579 2.13938 0 1 0
570 32 4 0.121889 16.238 4.66936 0.599314 0 1 0
571 32 4 0.121889 14.6822 4.56139 21.5534 0 1 -1
572 32 3 0.046089 12.7832 3.01533 0.542026 0 1 0
573 32 3 0.046089 13.91 1.86715 -0.219731 0 1 0
574 32 3 0.033922 11.8338 2.37969 20.8486 0 1 -1
575 32 3 0.033922 12.3237 4.08023 20.8474 0 1 -1
576 32 3 0.033922 13.3159 2.81242 20.0376 0 1 -1
577 33 1 -0.091211 14.5315 9.96074 16.0487 0 0 0
578 33 1 -0.050311 14.5711 11.4755 16.3071 0 0 0
579 33 2 -0.174311 15.893 12.0067 16.9322 0 0 0
580 33 2 -0.174311 16.0651 13.2342 17.4767 0 0 0
581 33 1 -0.050311 14.9597 14.291 17.4885 0 0 0
582 33 1 -0.091211 15.1053 15.3676 18.4828 0 0 0
583 33 3 0.033922 14.7014 9.48471 17.0189 0 0 0
584 33 3 0.033922 15.3251 9.63453 15.3702 0 0 0
585 33 3 0.033922 13.5823 9.70964 15.5665 0 0 0
586 33 3 0.046089 14.3851 12.1029 15.4305 0 0 0
587 33 3 0.046089 13.7441 11.6753 16.9947 0 0 0
588 33 4 0.121889 16.7207 11.3081 16.8626 0 0 0
589 33 4 0.121889 17.0307 13.3708 17.9531 0 0 0
590 33 3 0.046089 13.9869 13.8388 17.7024 0 0 0
591 33 3 0.046089 14.8867 14.8223 16.5351 0 0 0
592 33 3 0.033922 15.0946 14.9112 19.4769 0 0 0
593 33 3 0.033922 16.0622 15.8891 18.3875 0 0 0
594 33 3 0.033922 14.3018 16.1014 18.3709 0 0 0
595 34 1 -0.091211 16.5536 2.67341 9.70574 0 1 0
596 34 1 -0.050311 15.0928 2.93009 9.17854 0 1 0
597 34 2 -0.174311 14.3051 3.58075 10.3302 0 1 0
598 34 2 -0.174311 13.8391 3.01815 11.5048 0 1 0
599 34 1 -0.050311 14.0223 1.54131 11.7192 0 1 0
600 34 1 -0.091211 13.3965 1.19873 13.1102 0 1 0
601 34 3 0.033922 16.8953 3.66829 10.0058 0 1 0
602 34 3 0.033922 17.2871 2.24965 9.01359 0 1 0
603 34 3 0.033922 16.5868 1.95905 10.5335 0 1 0
604 34 3 0.046089 15.11 3.49666 8.24295 0 1 0
605 34 3 0.046089 14.6873 1.96582 8.85859 0 1 0
606 34 4 0.121889 14.1379 4.63152 10.1161 0 1 0
607 34 4 0.121889 13.2939 3.71656 12.1316 0 1 0
608 34 3 0.046089 15.076 1.30495 11.8936 0 1 0
609 34 3 0.046089 13.6504 20.406 10.8276 0 0 0
610 34 3 0.033922 13.8386 1.73865 13.9526 0 1 0
611 34 3 0.033922 12.3117 1.31523 13.0304 0 1 0
612 34 3 0.033922 13.6169 19.5308 13.3431 0 0 0
613 35 1 -0.091211 35.5401 10.9616 17.6166 -1 0 0
614 35 1 -0.050311 36.5988 10.8089 18.6486 -1 0 0