ITEM: TIMESTEP
38000
ITEM: NUMBER OF ATOMS
1800
ITEM: BOX BOUNDS pp pp pp
-2.5757209275404591e-02 3.8833772709275266e+01
-7.9936059840231088e-01 2.2408016098402605e+01
-8.5164539320337518e-01 2.2105378893203312e+01
ITEM: ATOMS id mol type q x y z ix iy iz
1 1 1 -0.091211 7.29127 14.9177 8.54199 0 -1 0
2 1 1 -0.050311 6.33269 16.1279 8.66544 0 -1 0
3 1 2 -0.174311 5.86797 16.6202 7.28837 0 -1 0
4 1 2 -0.174311 5.99151 17.8828 6.80423 0 -1 0
5 1 1 -0.050311 6.41601 19.1202 7.68282 0 -1 0
6 1 1 -0.091211 6.3432 20.4839 7.01064 0 -1 0
7 1 3 0.033922 6.74369 14.1143 8.04056 0 -1 0
8 1 3 0.033922 7.58327 14.5585 9.53314 0 -1 0
9 1 3 0.033922 8.19839 15.1953 7.99729 0 -1 0
10 1 3 0.046089 5.46887 15.7889 9.2447 0 -1 0
11 1 3 0.046089 6.85928 16.9067 9.22476 0 -1 0
12 1 4 0.121889 5.57541 15.7833 6.6623 0 -1 0
13 1 4 0.121889 5.87584 18.0366 5.73606 0 -1 0
14 1 3 0.046089 7.47221 18.9579 7.91683 0 -1 0
15 1 3 0.046089 5.75578 19.0443 8.55173 0 -1 0
16 1 3 0.033922 6.71171 21.2125 7.73876 0 -1 0
17 1 3 0.033922 6.97454 20.4991 6.11743 0 -1 0
18 1 3 0.033922 5.31063 20.7103 6.72916 0 -1 0
19 2 1 -0.091211 8.47039 2.69034 16.4582 0 0 0
20 2 1 -0.050311 9.20843 1.69604 17.3147 0 0 0
21 2 2 -0.174311 9.76042 0.62557 16.3635 0 0 0
22 2 2 -0.174311 10.9954 0.702871 15.8103 0 0 0
23 2 1 -0.050311 11.974 1.87948 15.8408 0 0 0
24 2 1 -0.091211 12.2785 2.19922 14.4015 0 0 0
25 2 3 0.033922 7.61611 2.23504 15.9487 0 0 0
26 2 3 0.033922 9.06574 3.03551 15.6079 0 0 0
27 2 3 0.033922 8.163 3.51668 17.1058 0 0 0
28 2 3 0.046089 9.9993 2.09037 17.9594 0 0 0
29 2 3 0.046089 8.51072 1.30062 18.0586 0 0 0
30 2 4 0.121889 9.1845 -0.277866 16.1897 0 0 0
31 2 4 0.121889 11.3115 -0.13941 15.203 0 0 0
32 2 3 0.046089 12.8902 1.72746 16.4189 0 0 0
33 2 3 0.046089 11.4474 2.69068 16.352 0 0 0
34 2 3 0.033922 12.6154 3.2323 14.275 0 0 0
35 2 3 0.033922 12.9724 1.49859 13.9278 0 0 0
36 2 3 0.033922 11.2929 2.17699 13.9274 0 0 0
37 3 1 -0.091211 8.34892 9.14721 8.59965 0 0 0
38 3 1 -0.050311 7.02297 9.2971 9.39981 0 0 0
39 3 2 -0.174311 6.32243 7.98651 9.79669 0 0 0
40 3 2 -0.174311 5.1287 7.92743 10.517 0 0 0
41 3 1 -0.050311 4.33078 9.16532 10.8974 0 0 0
42 3 1 -0.091211 3.41021 8.62285 11.9886 0 0 0
43 3 3 0.033922 9.02352 8.50304 9.17116 0 0 0
44 3 3 0.033922 8.89707 10.0879 8.49297 0 0 0
45 3 3 0.033922 8.14915 8.74757 7.60113 0 0 0
46 3 3 0.046089 7.26789 9.91477 10.2688 0 0 0
47 3 3 0.046089 6.35198 9.93223 8.81409 0 0 0
48 3 4 0.121889 6.77444 7.03741 9.52655 0 0 0
49 3 4 0.121889 4.79281 6.93587 10.8035 0 0 0
50 3 3 0.046089 3.85923 9.59464 10.0085 0 0 0
51 3 3 0.046089 4.96428 9.8871 11.4212 0 0 0
52 3 3 0.033922 2.99621 9.4165 12.6174 0 0 0
53 3 3 0.033922 2.63526 8.05701 11.4633 0 0 0
54 3 3 0.033922 3.96212 7.99011 12.6898 0 0 0
55 4 1 -0.091211 4.91654 0.981064 7.37347 0 0 0
56 4 1 -0.050311 5.06941 0.375966 5.92802 0 0 0
57 4 2 -0.174311 5.07486 1.6337 5.08811 0 0 0
58 4 2 -0.174311 4.49704 1.64061 3.81062 0 0 0
59 4 1 -0.050311 3.8682 0.448484 3.13432 0 0 0
60 4 1 -0.091211 3.72163 0.716407 1.66575 0 0 0
61 4 3 0.033922 5.74534 1.62919 7.67296 0 0 0
62 4 3 0.033922 4.80473 0.131237 8.05316 0 0 0
63 4 3 0.033922 4.04896 1.62811 7.53255 0 0 0
64 4 3 0.046089 6.00511 -0.168962 5.77249 0 0 0
65 4 3 0.046089 4.27085 -0.315065 5.64262 0 0 0
66 4 4 0.121889 5.48924 2.52235 5.5536 0 0 0
67 4 4 0.121889 4.45174 2.59557 3.29673 0 0 0
68 4 3 0.046089 2.97388 0.246747 3.7311 0 0 0
69 4 3 0.046089 4.49509 -0.44691 3.17873 0 0 0
70 4 3 0.033922 3.33318 -0.113896 1.06877 0 0 0
71 4 3 0.033922 3.07368 1.58083 1.49365 0 0 0
72 4 3 0.033922 4.69888 0.899231 1.20947 0 0 0
73 5 1 -0.091211 0.391908 2.72242 4.61152 0 0 0
74 5 1 -0.050311 0.780176 3.80589 3.65577 0 0 0
75 5 2 -0.174311 0.593431 5.22526 4.2142 0 0 0
76 5 2 -0.174311 38.3759 6.01133 4.29845 -1 0 0
77 5 1 -0.050311 36.976 5.523 3.95825 -1 0 0
78 5 1 -0.091211 36.005 5.58175 5.16909 -1 0 0
79 5 3 0.033922 0.505803 1.69942 4.24113 0 0 0
80 5 3 0.033922 38.2326 2.91545 4.96002 -1 0 0
81 5 3 0.033922 0.94432 2.78677 5.55352 0 0 0
82 5 3 0.046089 1.82348 3.7959 3.32705 0 0 0
83 5 3 0.046089 0.148168 3.61309 2.78397 0 0 0
84 5 4 0.121889 1.54157 5.68105 4.48127 0 0 0
85 5 4 0.121889 38.4984 6.88781 4.92681 -1 0 0
86 5 3 0.046089 36.9074 4.49371 3.59417 -1 0 0
87 5 3 0.046089 36.5969 6.12684 3.12859 -1 0 0
88 5 3 0.033922 34.9533 5.51623 4.87524 -1 0 0
89 5 3 0.033922 36.1712 4.73278 5.83864 -1 0 0
90 5 3 0.033922 36.1661 6.56581 5.61896 -1 0 0
91 6 1 -0.091211 11.3697 -0.630103 0.487339 0 0 1
92 6 1 -0.050311 10.5359 0.588555 -0.0265555 0 0 1
93 6 2 -0.174311 11.1153 2.00624 0.092726 0 0 1
94 6 2 -0.174311 10.7785 3.07222 -0.652077 0 0 1
95 6 1 -0.050311 9.84878 3.08456 21.1081 0 0 0
96 6 1 -0.091211 9.66516 4.52914 20.6705 0 0 0
97 6 3 0.033922 11.8295 -0.340876 1.43688 0 0 1
98 6 3 0.033922 12.2067 22.4325 -0.202017 0 -1 1
99 6 3 0.033922 10.8555 21.6134 0.429985 0 -1 1
100 6 3 0.046089 10.3256 0.403546 21.873 0 0 0
101 6 3 0.046089 9.57863 0.552584 0.50168 0 0 1
102 6 4 0.121889 11.8871 2.13342 0.845124 0 0 1
103 6 4 0.121889 11.2411 4.0118 -0.366999 0 0 1
104 6 3 0.046089 8.88355 2.63175 21.3529 0 0 0
105 6 3 0.046089 10.2725 2.41411 20.3546 0 0 0
106 6 3 0.033922 9.00649 4.60733 19.8006 0 0 0
107 6 3 0.033922 9.08892 5.01624 21.4625 0 0 0
108 6 3 0.033922 10.6129 4.99503 20.3853 0 0 0
109 7 1 -0.091211 36.542 15.3139 8.2746 -1 0 0
110 7 1 -0.050311 37.9702 15.535 8.71424 -1 0 0
111 7 2 -0.174311 38.1814 16.9907 9.04193 -1 0 0
112 7 2 -0.174311 0.0782453 17.872 8.33398 0 0 0
113 7 1 -0.050311 0.996015 17.6977 7.22643 0 0 0
114 7 1 -0.091211 2.3303 18.4649 7.40584 0 0 0
115 7 3 0.033922 36.4203 15.6437 7.23871 -1 0 0
116 7 3 0.033922 35.8301 15.8712 8.89045 -1 0 0
117 7 3 0.033922 36.2808 14.2525 8.23191 -1 0 0
118 7 3 0.046089 38.2225 14.9448 9.60006 -1 0 0
119 7 3 0.046089 38.6857 15.2842 7.92575 -1 0 0
120 7 4 0.121889 37.5149 17.3364 9.82572 -1 0 0
121 7 4 0.121889 38.8271 18.9121 8.62375 -1 0 0
122 7 3 0.046089 0.426047 18.143 6.40578 0 0 0
123 7 3 0.046089 1.27013 16.6489 7.07967 0 0 0
124 7 3 0.033922 2.93219 18.0552 8.22223 0 0 0
125 7 3 0.033922 2.91215 18.5174 6.48099 0 0 0
126 7 3 0.033922 2.09259 19.4913 7.7005 0 0 0
127 8 1 -0.091211 0.278855 6.94197 18.4279 0 0 0
128 8 1 -0.050311 1.71526 6.34455 18.2505 0 0 0
129 8 2 -0.174311 2.18823 6.50913 16.8626 0 0 0
130 8 2 -0.174311 3.47046 6.60309 16.4836 0 0 0
131 8 1 -0.050311 4.5695 6.36829 17.4549 0 0 0
132 8 1 -0.091211 5.95506 6.27979 16.7436 0 0 0
133 8 3 0.033922 38.7811 6.86892 19.4592 -1 0 0
134 8 3 0.033922 38.5135 6.3386 17.7629 -1 0 0
135 8 3 0.033922 0.313234 8.01833 18.2356 0 0 0
136 8 3 0.046089 2.34913 6.8929 18.9535 0 0 0
137 8 3 0.046089 1.74046 5.27385 18.4734 0 0 0
138 8 4 0.121889 1.50047 6.74497 16.0568 0 0 0
139 8 4 0.121889 3.64762 6.81759 15.4345 0 0 0
140 8 3 0.046089 4.44377 5.39789 17.944 0 0 0
141 8 3 0.046089 4.53012 7.14683 18.2223 0 0 0
142 8 3 0.033922 6.714 5.85579 17.4075 0 0 0
143 8 3 0.033922 5.93831 5.58394 15.8996 0 0 0
144 8 3 0.033922 6.18815 7.28752 16.3874 0 0 0
145 9 1 -0.091211 1.91051 13.5154 19.3399 0 0 0
146 9 1 -0.050311 0.870936 12.7526 20.0085 0 0 0
147 9 2 -0.174311 0.252235 13.6884 21.0602 0 0 0
148 9 2 -0.174311 37.9753 13.4184 21.8475 -1 0 0
149 9 1 -0.050311 37.2589 12.1531 21.7429 -1 0 0
150 9 1 -0.091211 36.1277 12.0105 -0.126953 -1 0 1
151 9 3 0.033922 1.46718 14.38 18.8372 0 0 0
152 9 3 0.033922 2.42486 12.9812 18.5356 0 0 0
153 9 3 0.033922 2.67889 13.8658 20.0352 0 0 0
154 9 3 0.046089 0.172568 12.2958 19.3012 0 0 0
155 9 3 0.046089 1.33153 11.9162 20.5422 0 0 0
156 9 4 0.121889 0.826784 14.608 21.011 0 0 0
157 9 4 0.121889 37.7598 14.0765 -0.273773 -1 0 1
158 9 3 0.046089 37.9853 11.3356 21.769 -1 0 0
159 9 3 0.046089 36.7498 12.133 20.7749 -1 0 0
160 9 3 0.033922 35.4899 12.8961 -0.202149 -1 0 1
161 9 3 0.033922 35.5269 11.1158 -0.314224 -1 0 1
162 9 3 0.033922 36.4529 12.0853 0.914842 -1 0 1
163 10 1 -0.091211 12.7711 9.71596 12.0428 0 0 1
164 10 1 -0.050311 13.0897 8.46455 11.2358 0 0 1
165 10 2 -0.174311 11.8707 8.09716 10.5365 0 0 1
166 10 2 -0.174311 11.8481 7.13796 9.63074 0 0 1
167 10 1 -0.050311 13.107 6.33406 9.28989 0 0 1
168 10 1 -0.091211 13.0382 5.88472 7.83432 0 0 1
169 10 3 0.033922 12.5729 10.5698 11.3883 0 0 1
170 10 3 0.033922 13.6646 10.03 12.5903 0 0 1
171 10 3 0.033922 11.9878 9.5215 12.7812 0 0 1
172 10 3 0.046089 13.8341 8.84731 10.5315 0 0 1
173 10 3 0.046089 13.6114 7.69729 11.8153 0 0 1
174 10 4 0.121889 11.0001 8.74254 10.5974 0 0 1
175 10 4 0.121889 10.9665 6.90279 9.04292 0 0 1
176 10 3 0.046089 13.1845 5.53521 10.0332 0 0 1
177 10 3 0.046089 14.0478 6.89051 9.33296 0 0 1
178 10 3 0.033922 14.0003 5.3754 7.72653 0 0 1
179 10 3 0.033922 12.2137 5.17497 7.71986 0 0 1
180 10 3 0.033922 13.0468 6.69423 7.09859 0 0 1
181 11 1 -0.091211 38.1035 16.3665 3.44921 -1 0 0
182 11 1 -0.050311 37.5977 15.0818 4.22706 -1 0 0
183 11 2 -0.174311 37.9502 13.7889 3.62207 -1 0 0
184 11 2 -0.174311 37.1621 12.6365 3.59701 -1 0 0
185 11 1 -0.050311 35.8222 12.4885 4.24275 -1 0 0
186 11 1 -0.091211 35.7769 11.1246 4.92098 -1 0 0
187 11 3 0.033922 0.254956 16.3649 3.0314 0 0 0
188 11 3 0.033922 37.9916 17.3054 3.99921 -1 0 0
189 11 3 0.033922 37.4904 16.5218 2.55668 -1 0 0
190 11 3 0.046089 38.1153 15.196 5.18398 -1 0 0
191 11 3 0.046089 36.5211 15.2254 4.35731 -1 0 0
192 11 4 0.121889 0.0455448 13.8053 3.10638 0 0 0
193 11 4 0.121889 37.6789 11.7739 3.18836 -1 0 0
194 11 3 0.046089 35.0589 12.6229 3.47076 -1 0 0
195 11 3 0.046089 35.668 13.2305 5.03167 -1 0 0
196 11 3 0.033922 36.0216 10.3178 4.22392 -1 0 0
197 11 3 0.033922 36.5055 11.1042 5.73668 -1 0 0
198 11 3 0.033922 34.8201 10.8466 5.3724 -1 0 0
199 12 1 -0.091211 3.32648 15.9942 4.49483 0 0 0
200 12 1 -0.050311 4.3755 15.058 3.99047 0 0 0
201 12 2 -0.174311 3.83866 13.6164 3.79039 0 0 0
202 12 2 -0.174311 4.00273 12.6184 4.6849 0 0 0
203 12 1 -0.050311 4.84867 12.7574 5.98048 0 0 0
204 12 1 -0.091211 4.78906 11.4324 6.70121 0 0 0
205 12 3 0.033922 3.0281 15.7393 5.51592 0 0 0
206 12 3 0.033922 2.45143 15.8956 3.84581 0 0 0
207 12 3 0.033922 3.60926 17.0417 4.35521 0 0 0
208 12 3 0.046089 4.73624 15.4053 3.01788 0 0 0
209 12 3 0.046089 5.2294 15.0824 4.67377 0 0 0
210 12 4 0.121889 3.36559 13.3807 2.84239 0 0 0
211 12 4 0.121889 3.74834 11.6018 4.40228 0 0 0
212 12 3 0.046089 4.35315 13.4692 6.64724 0 0 0
213 12 3 0.046089 5.81874 13.173 5.69244 0 0 0
214 12 3 0.033922 5.29857 10.7258 6.03957 0 0 0
215 12 3 0.033922 5.26438 11.4861 7.685 0 0 0
216 12 3 0.033922 3.77701 11.0724 6.90813 0 0 0
217 13 1 -0.091211 9.60612 11.7533 11.4802 0 0 0
218 13 1 -0.050311 8.78873 12.6479 12.4228 0 0 0
219 13 2 -0.174311 9.1439 14.1523 12.3045 0 0 0
220 13 2 -0.174311 8.18756 15.1293 12.1919 0 0 0
221 13 1 -0.050311 6.72983 14.932 12.5118 0 0 0
222 13 1 -0.091211 6.09569 16.2528 13.0025 0 0 0
223 13 3 0.033922 10.5985 12.2136 11.4769 0 0 0
224 13 3 0.033922 9.11924 11.85 10.5054 0 0 0
225 13 3 0.033922 9.66842 10.7584 11.9306 0 0 0
226 13 3 0.046089 7.70452 12.5041 12.4009 0 0 0
227 13 3 0.046089 9.06075 12.4026 13.4536 0 0 0
228 13 4 0.121889 10.1535 14.5387 12.2068 0 0 0
229 13 4 0.121889 8.58595 16.1195 11.995 0 0 0
230 13 3 0.046089 6.52488 14.2419 13.3355 0 0 0
231 13 3 0.046089 6.25431 14.5757 11.5933 0 0 0
232 13 3 0.033922 6.62206 16.5368 13.9184 0 0 0
233 13 3 0.033922 6.13308 17.0556 12.2603 0 0 0
234 13 3 0.033922 5.06926 16.1026 13.3496 0 0 0
235 14 1 -0.091211 13.5397 6.17394 15.6652 0 0 0
236 14 1 -0.050311 13.498 7.64202 16.144 0 0 0
237 14 2 -0.174311 12.9791 7.86872 17.5778 0 0 0
238 14 2 -0.174311 11.6555 8.06223 17.797 0 0 0
239 14 1 -0.050311 10.4902 7.97358 16.8646 0 0 0
240 14 1 -0.091211 9.60962 6.90779 17.4077 0 0 0
241 14 3 0.033922 12.5769 5.65458 15.6595 0 0 0
242 14 3 0.033922 14.0777 5.4485 16.2824 0 0 0
243 14 3 0.033922 13.8895 6.01128 14.6416 0 0 0
244 14 3 0.046089 14.5165 8.03561 16.0788 0 0 0
245 14 3 0.046089 12.9225 8.2692 15.4569 0 0 0
246 14 4 0.121889 13.6249 7.91348 18.4491 0 0 0
247 14 4 0.121889 11.2675 8.27014 18.7891 0 0 0
248 14 3 0.046089 10.7194 7.82464 15.8054 0 0 0
249 14 3 0.046089 9.95923 8.92993 16.8765 0 0 0
250 14 3 0.033922 8.80668 6.64933 16.7112 0 0 0
251 14 3 0.033922 10.1501 5.9632 17.5187 0 0 0
252 14 3 0.033922 9.17085 7.19441 18.3679 0 0 0
253 15 1 -0.091211 2.20673 20.2532 16.0595 0 0 0
254 15 1 -0.050311 2.96214 19.4238 17.0408 0 0 0
255 15 2 -0.174311 2.01429 18.6425 17.8999 0 0 0
256 15 2 -0.174311 2.35004 17.7599 18.8853 0 0 0
257 15 1 -0.050311 3.80425 17.498 19.4521 0 0 0
258 15 1 -0.091211 4.41063 18.7086 20.1792 0 0 0
259 15 3 0.033922 1.68985 19.5883 15.3613 0 0 0
260 15 3 0.033922 2.86004 20.9352 15.5076 0 0 0
261 15 3 0.033922 1.58 20.9829 16.5804 0 0 0
262 15 3 0.046089 3.60448 18.7984 16.414 0 0 0
263 15 3 0.046089 3.56385 20.197 17.5275 0 0 0
264 15 4 0.121889 0.967833 18.8576 17.7084 0 0 0
265 15 4 0.121889 1.49033 17.2526 19.3114 0 0 0
266 15 3 0.046089 4.34638 17.1545 18.5663 0 0 0
267 15 3 0.046089 3.6717 16.622 20.0938 0 0 0
268 15 3 0.033922 3.8596 18.9246 21.0992 0 0 0
269 15 3 0.033922 5.39622 18.3401 20.4783 0 0 0
270 15 3 0.033922 4.48545 19.6143 19.5702 0 0 0
271 16 1 -0.091211 9.04516 20.0871 3.4221 0 0 0
272 16 1 -0.050311 9.85763 21.2408 4.0359 0 0 0
273 16 2 -0.174311 8.99078 22.2693 4.74849 0 0 0
274 16 2 -0.174311 9.1901 -0.456072 5.97838 0 1 0
275 16 1 -0.050311 10.2442 22.2642 6.90436 0 0 0
276 16 1 -0.091211 9.94139 -0.427333 8.40157 0 1 0
277 16 3 0.033922 8.3424 19.6996 4.16551 0 0 0
278 16 3 0.033922 9.62442 19.266 2.98969 0 0 0
279 16 3 0.033922 8.42198 20.5632 2.65947 0 0 0
280 16 3 0.046089 10.6391 20.8831 4.7126 0 0 0
281 16 3 0.046089 10.3921 21.758 3.23368 0 0 0
282 16 4 0.121889 8.12119 -0.574384 4.21034 0 1 0
283 16 4 0.121889 8.48744 0.21944 6.45588 0 1 0
284 16 3 0.046089 11.268 -0.697902 6.60705 0 1 0
285 16 3 0.046089 10.1598 21.1742 6.86735 0 0 0
286 16 3 0.033922 10.4183 22.157 9.16381 0 0 0
287 16 3 0.033922 10.16 0.644399 8.41935 0 1 0
288 16 3 0.033922 8.87046 -0.578655 8.56547 0 1 0
289 17 1 -0.091211 9.32157 12.6416 19.8922 0 0 0
290 17 1 -0.050311 9.31718 13.9375 19.1594 0 0 0
291 17 2 -0.174311 8.00074 14.5496 18.987 0 0 0
292 17 2 -0.174311 7.27958 14.6208 17.8161 0 0 0
293 17 1 -0.050311 7.72264 14.2286 16.3815 0 0 0
294 17 1 -0.091211 6.96651 13.0146 15.7674 0 0 0
295 17 3 0.033922 8.79185 12.7414 20.8441 0 0 0
296 17 3 0.033922 10.3349 12.3681 20.2003 0 0 0
297 17 3 0.033922 8.86487 11.8533 19.2866 0 0 0
298 17 3 0.046089 9.94853 14.6795 19.6569 0 0 0
299 17 3 0.046089 9.87369 13.7069 18.2463 0 0 0
300 17 4 0.121889 7.61381 14.9815 19.9045 0 0 0
301 17 4 0.121889 6.32411 15.1356 17.8238 0 0 0
302 17 3 0.046089 8.79938 14.0488 16.3113 0 0 0
303 17 3 0.046089 7.65994 15.1468 15.7901 0 0 0
304 17 3 0.033922 7.24679 12.7917 14.7338 0 0 0
305 17 3 0.033922 7.31671 12.2679 16.4861 0 0 0
306 17 3 0.033922 5.89636 13.2257 15.8502 0 0 0
307 18 1 -0.091211 0.574987 9.62021 4.21055 0 0 1
308 18 1 -0.050311 0.749231 10.4886 5.39591 0 0 1
309 18 2 -0.174311 1.27811 9.75327 6.57053 0 0 1
310 18 2 -0.174311 0.65856 9.55695 7.82172 0 0 1
311 18 1 -0.050311 38.1562 9.95975 8.29653 -1 0 1
312 18 1 -0.091211 38.2124 11.2284 9.13577 -1 0 1
313 18 3 0.033922 38.5261 9.01373 4.27096 -1 0 1
314 18 3 0.033922 1.49306 9.03757 4.09085 0 0 1
315 18 3 0.033922 0.546349 10.277 3.33624 0 0 1
316 18 3 0.046089 1.5047 11.2244 5.10505 0 0 1
317 18 3 0.046089 38.7199 11.0703 5.65716 -1 0 1
318 18 4 0.121889 2.26837 9.34968 6.38469 0 0 1
319 18 4 0.121889 1.27978 9.01625 8.52868 0 0 1
320 18 3 0.046089 37.7117 9.13912 8.86723 -1 0 1
321 18 3 0.046089 37.501 10.1222 7.43568 -1 0 1
322 18 3 0.033922 0.134941 11.1643 9.89792 0 0 1
323 18 3 0.033922 38.2894 12.0834 8.45785 -1 0 1
324 18 3 0.033922 37.3107 11.5088 9.68795 -1 0 1
325 19 1 -0.091211 15.436 10.8557 2.62361 0 0 0
326 19 1 -0.050311 15.013 10.505 3.95527 0 0 0
327 19 2 -0.174311 14.1873 11.6159 4.52715 0 0 0
328 19 2 -0.174311 13.1511 11.4072 5.42278 0 0 0
329 19 1 -0.050311 12.9177 10.0124 5.85702 0 0 0
330 19 1 -0.091211 11.8759 10.0331 6.95951 0 0 0
331 19 3 0.033922 14.6213 10.9659 1.90189 0 0 0
332 19 3 0.033922 16.0449 9.99785 2.32359 0 0 0
333 19 3 0.033922 16.0366 11.767 2.69682 0 0 0
334 19 3 0.046089 14.4683 9.55645 3.96819 0 0 0
335 19 3 0.046089 15.9448 10.475 4.52749 0 0 0
336 19 4 0.121889 14.524 12.6303 4.33846 0 0 0
337 19 4 0.121889 12.5788 12.2387 5.82179 0 0 0
338 19 3 0.046089 13.8731 9.56951 6.153 0 0 0
339 19 3 0.046089 12.5442 9.40086 5.03043 0 0 0
340 19 3 0.033922 10.8864 10.3658 6.6325 0 0 0
341 19 3 0.033922 11.7537 8.99796 7.29146 0 0 0
342 19 3 0.033922 12.1961 10.6337 7.81597 0 0 0
343 20 1 -0.091211 13.0633 22.1021 11.4211 0 -1 0
344 20 1 -0.050311 14.3785 21.3255 11.5666 0 -1 0
345 20 2 -0.174311 14.8719 20.8274 10.2541 0 -1 0
346 20 2 -0.174311 16.2244 20.434 9.93568 0 -1 0
347 20 1 -0.050311 17.4241 20.2845 10.8399 0 -1 0
348 20 1 -0.091211 18.2411 21.6111 10.8527 0 -1 0
349 20 3 0.033922 13.1827 -0.289079 10.7026 0 0 0
350 20 3 0.033922 12.8531 22.5899 12.3774 0 -1 0
351 20 3 0.033922 12.2531 21.4344 11.1138 0 -1 0
352 20 3 0.046089 15.0812 22.1018 11.8833 0 -1 0
353 20 3 0.046089 14.3696 20.4781 12.2583 0 -1 0
354 20 4 0.121889 14.2232 20.6741 9.3975 0 -1 0
355 20 4 0.121889 16.3812 20.1938 8.88888 0 -1 0
356 20 3 0.046089 18.0557 19.4522 10.5158 0 -1 0
357 20 3 0.046089 17.2039 20.0431 11.8838 0 -1 0
358 20 3 0.033922 18.6121 21.8312 9.84741 0 -1 0
359 20 3 0.033922 17.6303 22.4279 11.2481 0 -1 0
360 20 3 0.033922 19.1105 21.449 11.4966 0 -1 0
361 21 1 -0.091211 3.33559 1.91125 13.6272 0 0 0
362 21 1 -0.050311 4.57452 1.51714 14.4404 0 0 0
363 21 2 -0.174311 4.64164 2.23523 15.7543 0 0 0
364 21 2 -0.174311 4.61214 1.66856 17.046 0 0 0
365 21 1 -0.050311 4.48115 0.155813 17.3916 0 0 0
366 21 1 -0.091211 3.05731 -0.0369765 17.8847 0 0 0
367 21 3 0.033922 2.38596 1.50984 13.9929 0 0 0
368 21 3 0.033922 3.3621 1.612 12.5753 0 0 0
369 21 3 0.033922 3.34942 3.00164 13.7142 0 0 0
370 21 3 0.046089 4.39192 0.462424 14.6661 0 0 0
371 21 3 0.046089 5.48638 1.7195 13.871 0 0 0
372 21 4 0.121889 4.69047 3.31844 15.7057 0 0 0
373 21 4 0.121889 4.62044 2.2831 17.9406 0 0 0
374 21 3 0.046089 5.22986 0.0614647 18.1836 0 0 0
375 21 3 0.046089 4.75809 -0.526017 16.5822 0 0 0
376 21 3 0.033922 2.24974 0.213836 17.1907 0 0 0
377 21 3 0.033922 2.91038 22.117 18.1406 0 -1 0
378 21 3 0.033922 2.9471 0.487343 18.8384 0 0 0
379 22 1 -0.091211 6.26652 0.628567 11.0195 0 0 0
380 22 1 -0.050311 6.90125 -0.414973 11.8596 0 0 0
381 22 2 -0.174311 5.92348 21.938 12.5366 0 -1 0
382 22 2 -0.174311 6.15253 21.2709 13.6744 0 -1 0
383 22 1 -0.050311 7.29654 21.3877 14.6513 0 -1 0
384 22 1 -0.091211 7.37534 20.0616 15.465 0 -1 0
385 22 3 0.033922 5.46185 0.213717 10.4054 0 0 0
386 22 3 0.033922 6.89665 1.15557 10.2971 0 0 0
387 22 3 0.033922 5.80864 1.39851 11.6473 0 0 0
388 22 3 0.046089 7.67096 22.2544 11.2986 0 -1 0
389 22 3 0.046089 7.4342 0.0776967 12.6781 0 0 0
390 22 4 0.121889 4.97571 21.6957 12.0664 0 -1 0
391 22 4 0.121889 5.33862 20.6729 14.0719 0 -1 0
392 22 3 0.046089 7.02211 22.0555 15.4732 0 -1 0
393 22 3 0.046089 8.20128 21.8032 14.198 0 -1 0
394 22 3 0.033922 6.46665 19.8864 16.0483 0 -1 0
395 22 3 0.033922 7.56391 19.1657 14.8663 0 -1 0
396 22 3 0.033922 8.26793 20.2579 16.0662 0 -1 0
397 23 1 -0.091211 1.4543 8.14945 21.7508 0 0 -1
398 23 1 -0.050311 2.88703 8.40873 -0.653415 0 0 0
399 23 2 -0.174311 3.0461 9.70585 0.0960578 0 0 0
400 23 2 -0.174311 3.89462 9.96422 1.18094 0 0 0
401 23 1 -0.050311 4.91447 8.87862 1.65147 0 0 0
402 23 1 -0.091211 4.84736 8.69956 3.16632 0 0 0
403 23 3 0.033922 1.49589 7.16129 21.2833 0 0 -1
404 23 3 0.033922 1.08042 8.91252 21.0618 0 0 -1
405 23 3 0.033922 0.838464 8.11375 -0.30285 0 0 0
406 23 3 0.046089 3.02042 7.60619 0.077904 0 0 0
407 23 3 0.046089 3.72332 8.29545 21.6076 0 0 -1
408 23 4 0.121889 2.49076 10.5616 -0.274587 0 0 0
409 23 4 0.121889 3.92701 10.9493 1.63555 0 0 0
410 23 3 0.046089 5.95253 9.08088 1.3719 0 0 0
411 23 3 0.046089 4.73617 7.93936 1.11978 0 0 0
412 23 3 0.033922 5.09189 9.66698 3.61465 0 0 0
413 23 3 0.033922 3.838 8.33884 3.38476 0 0 0
414 23 3 0.033922 5.59922 7.94556 3.41701 0 0 0
415 24 1 -0.091211 1.80716 16.039 0.152111 0 0 0
416 24 1 -0.050311 3.0841 15.1851 0.271725 0 0 0
417 24 2 -0.174311 4.44117 15.9594 0.215796 0 0 0
418 24 2 -0.174311 5.69425 15.3461 0.215354 0 0 0
419 24 1 -0.050311 5.85784 13.8533 0.169422 0 0 0
420 24 1 -0.091211 6.72782 13.2659 1.22247 0 0 0
421 24 3 0.033922 1.68865 16.6281 1.06617 0 0 0
422 24 3 0.033922 1.05085 15.2558 0.258373 0 0 0
423 24 3 0.033922 1.60058 16.5971 -0.765774 0 0 0
424 24 3 0.046089 3.09249 14.5076 1.13061 0 0 0
425 24 3 0.046089 2.95618 14.5921 -0.638604 0 0 0
426 24 4 0.121889 4.4515 17.0306 0.390972 0 0 0
427 24 4 0.121889 6.53769 16.0292 0.222947 0 0 0
428 24 3 0.046089 6.33814 13.6272 -0.787041 0 0 0
429 24 3 0.046089 4.88739 13.3489 0.190239 0 0 0
430 24 3 0.033922 6.51799 13.7946 2.15686 0 0 0
431 24 3 0.033922 6.62467 12.1828 1.33666 0 0 0
432 24 3 0.033922 7.76213 13.3995 0.89231 0 0 0
433 25 1 -0.091211 7.24935 8.7595 13.4387 0 0 0
434 25 1 -0.050311 8.3788 7.84593 13.7818 0 0 0
435 25 2 -0.174311 8.67043 7.14017 12.4791 0 0 0
436 25 2 -0.174311 8.91932 5.77 12.2979 0 0 0
437 25 1 -0.050311 8.63673 4.83582 13.4784 0 0 0
438 25 1 -0.091211 8.37304 3.39579 12.885 0 0 0
439 25 3 0.033922 6.88429 9.25099 14.3452 0 0 0
440 25 3 0.033922 6.48902 8.14121 12.9526 0 0 0
441 25 3 0.033922 7.58616 9.53154 12.7407 0 0 0
442 25 3 0.046089 9.23138 8.47698 14.0493 0 0 0
443 25 3 0.046089 8.19939 7.10955 14.5706 0 0 0
444 25 4 0.121889 8.80485 7.7584 11.5972 0 0 0
445 25 4 0.121889 9.27123 5.53336 11.2988 0 0 0
446 25 3 0.046089 7.79282 5.14149 14.1037 0 0 0
447 25 3 0.046089 9.62301 4.81515 13.9511 0 0 0
448 25 3 0.033922 9.25907 3.06433 12.3357 0 0 0
449 25 3 0.033922 8.06072 2.66647 13.6381 0 0 0
450 25 3 0.033922 7.57673 3.42696 12.1356 0 0 0
451 26 1 -0.091211 2.62253 18.5087 11.9634 0 -1 0
452 26 1 -0.050311 1.81315 19.7498 11.5094 0 -1 0
453 26 2 -0.174311 1.91054 20.7539 12.6395 0 -1 0
454 26 2 -0.174311 0.887177 21.4523 13.2086 0 -1 0
455 26 1 -0.050311 38.3554 21.236 12.73 -1 -1 0
456 26 1 -0.091211 37.4283 -0.739872 13.0511 -1 0 0
457 26 3 0.033922 3.68853 18.7159 12.0952 0 -1 0
458 26 3 0.033922 2.53163 17.7126 11.2187 0 -1 0
459 26 3 0.033922 2.22722 18.0276 12.8628 0 -1 0
460 26 3 0.046089 2.20813 20.127 10.5616 0 -1 0
461 26 3 0.046089 0.780515 19.4787 11.2711 0 -1 0
462 26 4 0.121889 2.84136 20.8108 13.1948 0 -1 0
463 26 4 0.121889 1.16411 22.0964 14.0371 0 -1 0
464 26 3 0.046089 37.8592 20.3592 13.1564 -1 -1 0
465 26 3 0.046089 38.3753 21.1042 11.6442 -1 -1 0
466 26 3 0.033922 36.4225 22.3647 12.6337 -1 -1 0
467 26 3 0.033922 37.4305 -0.612389 14.1376 -1 0 0
468 26 3 0.033922 37.8848 0.159693 12.628 -1 0 0
469 27 1 -0.091211 19.8541 12.8903 8.00869 0 0 0
470 27 1 -0.050311 19.9551 12.3835 6.57901 0 0 0
471 27 2 -0.174311 18.9015 12.6953 5.67249 0 0 0
472 27 2 -0.174311 18.7683 12.1303 4.4165 0 0 0
473 27 1 -0.050311 19.7947 11.2167 3.74926 0 0 0
474 27 1 -0.091211 19.2103 10.6018 2.4674 0 0 0
475 27 3 0.033922 20.542 12.3027 8.62361 0 0 0
476 27 3 0.033922 18.8423 12.9175 8.42355 0 0 0
477 27 3 0.033922 20.2417 13.9126 7.97256 0 0 0
478 27 3 0.046089 20.9387 12.7056 6.22493 0 0 0
479 27 3 0.046089 20.0186 11.2915 6.58996 0 0 0
480 27 4 0.121889 18.2126 13.505 5.89141 0 0 0
481 27 4 0.121889 17.9393 12.5409 3.84888 0 0 0
482 27 3 0.046089 20.1071 10.4201 4.4307 0 0 0
483 27 3 0.046089 20.7207 11.7463 3.5071 0 0 0
484 27 3 0.033922 18.2065 10.1856 2.59296 0 0 0
485 27 3 0.033922 19.0736 11.3974 1.72915 0 0 0
486 27 3 0.033922 19.8465 9.81404 2.05345 0 0 0
487 28 1 -0.091211 8.56772 18.2611 18.6233 0 -1 -1
488 28 1 -0.050311 8.86037 18.7382 20.087 0 -1 -1
489 28 2 -0.174311 9.39131 20.2127 20.0305 0 -1 -1
490 28 2 -0.174311 8.57717 21.2947 20.1034 0 -1 -1
491 28 1 -0.050311 7.09031 21.302 20.3238 0 -1 -1
492 28 1 -0.091211 6.54055 -0.575773 20.8393 0 0 -1
493 28 3 0.033922 8.64752 19.1045 17.9313 0 -1 -1
494 28 3 0.033922 7.52165 17.9414 18.6372 0 -1 -1
495 28 3 0.033922 9.24671 17.4495 18.3459 0 -1 -1
496 28 3 0.046089 8.00764 18.6391 20.765 0 -1 -1
497 28 3 0.046089 9.6263 18.1209 20.5654 0 -1 -1
498 28 4 0.121889 10.4693 20.2345 19.9056 0 -1 -1
499 28 4 0.121889 9.01789 22.2752 19.9537 0 -1 -1
500 28 3 0.046089 6.81395 20.4729 20.9818 0 -1 -1
501 28 3 0.046089 6.58969 21.0099 19.396 0 -1 -1
502 28 3 0.033922 5.4575 -0.582336 20.9929 0 0 -1
503 28 3 0.033922 7.02617 -0.463445 21.8131 0 0 -1
504 28 3 0.033922 6.7861 0.307425 20.2423 0 0 -1
505 29 1 -0.091211 7.65558 2.1527 2.02814 0 0 0
506 29 1 -0.050311 8.9149 2.41777 2.9341 0 0 0
507 29 2 -0.174311 9.03966 3.91043 3.16066 0 0 0
508 29 2 -0.174311 8.95051 4.57132 4.37419 0 0 0
509 29 1 -0.050311 8.74179 3.97353 5.68065 0 0 0
510 29 1 -0.091211 7.8781 4.9507 6.48096 0 0 0
511 29 3 0.033922 7.5897 2.85637 1.19316 0 0 0
512 29 3 0.033922 6.71109 2.21861 2.57608 0 0 0
513 29 3 0.033922 7.79568 1.12866 1.66979 0 0 0
514 29 3 0.046089 8.88931 1.88883 3.89131 0 0 0
515 29 3 0.046089 9.78642 2.13469 2.33663 0 0 0
516 29 4 0.121889 9.32133 4.37986 2.22345 0 0 0
517 29 4 0.121889 9.06148 5.6507 4.34736 0 0 0
518 29 3 0.046089 9.68923 3.65142 6.12253 0 0 0
519 29 3 0.046089 8.06421 3.12788 5.53084 0 0 0
520 29 3 0.033922 8.25379 5.97809 6.47669 0 0 0
521 29 3 0.033922 6.87875 4.88237 6.04134 0 0 0
522 29 3 0.033922 7.85674 4.6239 7.52471 0 0 0
523 30 1 -0.091211 12.8259 13.5129 0.76064 0 0 1
524 30 1 -0.050311 11.4063 13.5876 0.204667 0 0 1
525 30 2 -0.174311 11.2219 14.8194 -0.708523 0 0 1
526 30 2 -0.174311 10.4317 15.8946 -0.386358 0 0 1
527 30 1 -0.050311 9.59253 15.9875 0.907975 0 0 1
528 30 1 -0.091211 8.89114 17.3344 0.970176 0 0 1
529 30 3 0.033922 12.9602 12.8334 1.60742 0 0 1
530 30 3 0.033922 13.1762 14.4589 1.18379 0 0 1
531 30 3 0.033922 13.5184 13.272 -0.0511477 0 0 1
532 30 3 0.046089 11.107 12.693 -0.349253 0 0 1
533 30 3 0.046089 10.7629 13.6442 1.08758 0 0 1
534 30 4 0.121889 11.7285 14.7134 21.2945 0 0 0
535 30 4 0.121889 10.51 16.8042 21.9836 0 0 0
536 30 3 0.046089 10.2518 15.8143 1.76359 0 0 1
537 30 3 0.046089 8.79152 15.2448 0.967027 0 0 1
538 30 3 0.033922 8.34661 17.4412 0.0274515 0 0 1
539 30 3 0.033922 8.12921 17.3007 1.75439 0 0 1
540 30 3 0.033922 9.6095 18.1585 1.00842 0 0 1
541 31 1 -0.091211 17.3437 6.10913 16.526 0 1 0
542 31 1 -0.050311 16.4681 5.26928 17.5371 0 1 0
543 31 2 -0.174311 17.3111 4.66915 18.6983 0 1 0
544 31 2 -0.174311 17.6706 3.36964 18.8536 0 1 0
545 31 1 -0.050311 17.3121 2.14755 18.0242 0 1 0
546 31 1 -0.091211 17.423 0.853802 18.9206 0 1 0
547 31 3 0.033922 17.593 7.06248 17.0011 0 1 0
548 31 3 0.033922 16.772 6.33754 15.6218 0 1 0
549 31 3 0.033922 18.2682 5.60106 16.2363 0 1 0
550 31 3 0.046089 15.7139 5.97944 17.8886 0 1 0
551 31 3 0.046089 15.9328 4.4366 17.0714 0 1 0
552 31 4 0.121889 17.6142 5.40267 19.4387 0 1 0
553 31 4 0.121889 18.2979 3.11233 19.7011 0 1 0
554 31 3 0.046089 17.843 2.01761 17.0766 0 1 0
555 31 3 0.046089 16.3092 2.34958 17.637 0 1 0
556 31 3 0.033922 18.4482 0.638862 19.2359 0 1 0
557 31 3 0.033922 16.737 0.927689 19.7695 0 1 0
558 31 3 0.033922 17.0766 0.0143996 18.3106 0 1 0
559 32 1 -0.091211 15.0978 0.422442 0.321888 0 1 0
560 32 1 -0.050311 15.785 -0.407584 1.44011 0 1 0
561 32 2 -0.174311 15.0068 21.5896 1.80568 0 0 0
562 32 2 -0.174311 15.4739 20.516 2.47555 0 0 0
563 32 1 -0.050311 16.9581 20.2819 2.89777 0 0 0
564 32 1 -0.091211 17.1342 20.6144 4.35594 0 0 0
565 32 3 0.033922 15.6632 1.34238 0.146394 0 1 0
566 32 3 0.033922 14.1689 0.852842 0.70726 0 1 0
567 32 3 0.033922 15.0548 -0.152485 -0.607776 0 1 0
568 32 3 0.046089 16.8149 -0.686018 1.19814 0 1 0
569 32 3 0.046089 15.832 0.214595 2.33863 0 1 0
570 32 4 0.121889 13.9864 21.4816 1.4521 0 0 0
571 32 4 0.121889 14.7622 19.7411 2.74222 0 0 0
572 32 3 0.046089 17.6248 20.9427 2.33603 0 0 0
573 32 3 0.046089 17.2917 19.2497 2.75655 0 0 0
574 32 3 0.033922 18.1586 20.3599 4.64341 0 0 0
575 32 3 0.033922 17.0351 21.6841 4.5622 0 0 0
576 32 3 0.033922 16.3735 20.1484 4.9891 0 0 0
577 33 1 -0.091211 12.8667 13.5266 9.50919 0 0 0
578 33 1 -0.050311 13.7317 14.4939 10.3358 0 0 0
579 33 2 -0.174311 13.5427 14.2478 11.8206 0 0 0
580 33 2 -0.174311 14.0316 15.2313 12.7843 0 0 0
581 33 1 -0.050311 14.463 16.6155 12.5002 0 0 0
582 33 1 -0.091211 15.5739 16.9839 13.5044 0 0 0
583 33 3 0.033922 11.7904 13.6842 9.62478 0 0 0
584 33 3 0.033922 12.9148 12.4816 9.8292 0 0 0
585 33 3 0.033922 13.0742 13.7324 8.45503 0 0 0
586 33 3 0.046089 14.7891 14.388 10.076 0 0 0
587 33 3 0.046089 13.3651 15.4794 10.034 0 0 0
588 33 4 0.121889 13.1278 13.3169 12.1937 0 0 0
589 33 4 0.121889 13.9748 14.8938 13.8143 0 0 0
590 33 3 0.046089 13.5771 17.2436 12.632 0 0 0
591 33 3 0.046089 14.7629 16.7832 11.4616 0 0 0
592 33 3 0.033922 16.3852 16.2948 13.2523 0 0 0
593 33 3 0.033922 15.9455 18.0102 13.4316 0 0 0
594 33 3 0.033922 15.1518 16.7052 14.4744 0 0 0
595 34 1 -0.091211 23.3309 15.7769 14.8143 0 0 0
596 34 1 -0.050311 23.5998 15.818 13.331 0 0 0
597 34 2 -0.174311 23.8546 17.2148 12.8665 0 0 0
598 34 2 -0.174311 23.8158 17.737 11.6237 0 0 0
599 34 1 -0.050311 23.5609 16.8708 10.369 0 0 0
600 34 1 -0.091211 22.5573 17.7068 9.46135 0 0 0
601 34 3 0.033922 24.1696 16.2208 15.3587 0 0 0
602 34 3 0.033922 23.2105 14.7323 15.1159 0 0 0
603 34 3 0.033922 22.3762 16.2235 15.1071 0 0 0
604 34 3 0.046089 24.5171 15.2766 13.0816 0 0 0
605 34 3 0.046089 22.7519 15.4441 12.7498 0 0 0
606 34 4 0.121889 24.1389 17.8761 13.6788 0 0 0
607 34 4 0.121889 24.0828 18.7839 11.5201 0 0 0
608 34 3 0.046089 23.1027 15.9124 10.6304 0 0 0
609 34 3 0.046089 24.4553 16.5942 9.80321 0 0 0
610 34 3 0.033922 23.1101 18.3781 8.79764 0 0 0
611 34 3 0.033922 22.0041 17.1381 8.70824 0 0 0
612 34 3 0.033922 21.8542 18.3376 10.013 0 0 0
613 35 1 -0.091211 36.7628 14.071 15.154 -1 0 0
614 35 1 -0.050311 36.1533 12.738 14.7146 -1 0 0
615 35 2 -0.174311 34.6914 12.9451 14.3518 -1 0 0
616 35 2 -0.174311 34.1748 13.4002 13.142 -1 0 0
617 35 1 -0.050311 34.9417 13.6571 11.9082 -1 0 0
618 35 1 -0.091211 34.8017 12.5528 10.8735 -1 0 0