ITEM: TIMESTEP
59700
ITEM: NUMBER OF ATOMS
1800
ITEM: BOX BOUNDS pp pp pp
-2.6486095995996628e+00 4.1456625099598909e+01
-1.6285273780443372e+00 2.3237182878044749e+01
1.3309516606287737e+00 1.9922781839371005e+01
ITEM: ATOMS id mol type q x y z ix iy iz
1 1 1 -0.091211 3.70808 11.4477 9.43349 0 -1 0
2 1 1 -0.050311 4.34209 10.2035 10.1573 0 -1 0
3 1 2 -0.174311 4.90485 9.13707 9.25409 0 -1 0
4 1 2 -0.174311 4.65693 7.77988 9.36077 0 -1 0
5 1 1 -0.050311 3.81942 7.18077 10.4245 0 -1 0
6 1 1 -0.091211 4.59107 7.00258 11.7759 0 -1 0
7 1 3 0.033922 4.48999 11.9954 8.89933 0 -1 0
8 1 3 0.033922 3.29697 12.175 10.1396 0 -1 0
9 1 3 0.033922 2.93514 11.155 8.71688 0 -1 0
10 1 3 0.046089 5.27339 10.5295 10.6296 0 -1 0
11 1 3 0.046089 3.68945 9.78977 10.9316 0 -1 0
12 1 4 0.121889 5.48688 9.44125 8.38992 0 -1 0
13 1 4 0.121889 5.06959 7.05575 8.66552 0 -1 0
14 1 3 0.046089 3.39727 6.24526 10.0461 0 -1 0
15 1 3 0.046089 2.90957 7.78224 10.5084 0 -1 0
16 1 3 0.033922 5.16115 7.8545 12.1578 0 -1 0
17 1 3 0.033922 3.95777 6.70606 12.6172 0 -1 0
18 1 3 0.033922 5.35852 6.22695 11.6983 0 -1 0
19 2 1 -0.091211 11.5322 2.91308 16.1037 0 0 0
20 2 1 -0.050311 11.7075 2.9338 14.5853 0 0 0
21 2 2 -0.174311 10.8367 4.00047 14.0011 0 0 0
22 2 2 -0.174311 9.57142 3.82628 13.5702 0 0 0
23 2 1 -0.050311 8.81319 2.55194 13.6223 0 0 0
24 2 1 -0.091211 9.17684 1.41316 12.6396 0 0 0
25 2 3 0.033922 10.4718 2.93954 16.3714 0 0 0
26 2 3 0.033922 12.1485 3.69225 16.5617 0 0 0
27 2 3 0.033922 11.8936 1.92128 16.3906 0 0 0
28 2 3 0.046089 12.7519 3.19127 14.3863 0 0 0
29 2 3 0.046089 11.5364 1.91614 14.2225 0 0 0
30 2 4 0.121889 11.2726 4.96172 13.7483 0 0 0
31 2 4 0.121889 9.06954 4.68024 13.1265 0 0 0
32 2 3 0.046089 7.76151 2.82721 13.5004 0 0 0
33 2 3 0.046089 8.90474 2.1003 14.6144 0 0 0
34 2 3 0.033922 8.3614 0.684178 12.6241 0 0 0
35 2 3 0.033922 9.28648 1.81271 11.6271 0 0 0
36 2 3 0.033922 10.1447 0.953787 12.8605 0 0 0
37 3 1 -0.091211 0.759245 4.46469 13.1676 0 0 0
38 3 1 -0.050311 2.21993 4.07884 13.034 0 0 0
39 3 2 -0.174311 2.53866 2.78028 13.7859 0 0 0
40 3 2 -0.174311 3.69458 2.00936 13.6025 0 0 0
41 3 1 -0.050311 4.55611 2.26456 12.3379 0 0 0
42 3 1 -0.091211 5.52391 1.15863 12.3472 0 0 0
43 3 3 0.033922 0.117236 3.66256 12.792 0 0 0
44 3 3 0.033922 0.582014 5.40729 12.6415 0 0 0
45 3 3 0.033922 0.494333 4.71214 14.1997 0 0 0
46 3 3 0.046089 2.34646 3.84295 11.9733 0 0 0
47 3 3 0.046089 2.8958 4.90168 13.2845 0 0 0
48 3 4 0.121889 1.94694 2.57596 14.6726 0 0 0
49 3 4 0.121889 3.97952 1.20007 14.2673 0 0 0
50 3 3 0.046089 5.08485 3.22212 12.3277 0 0 0
51 3 3 0.046089 3.95045 2.07324 11.4472 0 0 0
52 3 3 0.033922 6.07366 1.17272 11.4015 0 0 0
53 3 3 0.033922 6.19906 1.38924 13.1764 0 0 0
54 3 3 0.033922 5.0693 0.173339 12.4854 0 0 0
55 4 1 -0.091211 1.90835 22.9871 11.7716 0 -1 0
56 4 1 -0.050311 0.978803 22.0344 11.0097 0 -1 0
57 4 2 -0.174311 -0.272924 22.0961 11.847 0 -1 0
58 4 2 -0.174311 -1.54013 21.7303 11.4457 0 -1 0
59 4 1 -0.050311 -1.86958 20.9729 10.219 0 -1 0
60 4 1 -0.091211 -2.50487 21.9525 9.23244 0 -1 0
61 4 3 0.033922 2.74372 23.2012 11.0986 0 -1 0
62 4 3 0.033922 2.21655 22.5434 12.7228 0 -1 0
63 4 3 0.033922 1.47145 -0.90153 11.9977 0 0 0
64 4 3 0.046089 0.749203 22.4298 10.0159 0 -1 0
65 4 3 0.046089 1.38165 21.031 10.8442 0 -1 0
66 4 4 0.121889 -0.259703 22.5472 12.8341 0 -1 0
67 4 4 0.121889 -2.33175 21.825 12.1821 0 -1 0
68 4 3 0.046089 41.5762 20.1139 10.3733 -1 -1 0
69 4 3 0.046089 -0.95792 20.6115 9.73439 0 -1 0
70 4 3 0.033922 -1.77437 22.7264 8.97927 0 -1 0
71 4 3 0.033922 41.3357 21.4135 8.31805 -1 -1 0
72 4 3 0.033922 40.7407 22.3689 9.76558 -1 -1 0
73 5 1 -0.091211 0.0488358 2.40099 6.11048 0 0 0
74 5 1 -0.050311 -1.05412 3.46695 5.90709 0 0 0
75 5 2 -0.174311 -2.36886 2.79734 5.52426 0 0 0
76 5 2 -0.174311 40.4641 3.403 5.677 -1 0 0
77 5 1 -0.050311 40.3004 4.76975 6.31516 -1 0 0
78 5 1 -0.091211 38.8061 5.09924 6.35407 -1 0 0
79 5 3 0.033922 1.00618 2.88444 6.32592 0 0 0
80 5 3 0.033922 0.191066 1.71929 5.26685 0 0 0
81 5 3 0.033922 -0.0502468 1.76449 6.99462 0 0 0
82 5 3 0.046089 -1.19014 3.99955 6.85288 0 0 0
83 5 3 0.046089 -0.7644 4.26721 5.21987 0 0 0
84 5 4 0.121889 -2.42226 1.85415 4.98991 0 0 0
85 5 4 0.121889 39.6467 2.73019 5.43786 -1 0 0
86 5 3 0.046089 40.8954 5.45076 5.69965 -1 0 0
87 5 3 0.046089 40.6128 4.77588 7.36353 -1 0 0
88 5 3 0.033922 38.1979 4.52861 7.06201 -1 0 0
89 5 3 0.033922 38.7154 6.1645 6.58551 -1 0 0
90 5 3 0.033922 38.3794 4.86213 5.3751 -1 0 0
91 6 1 -0.091211 11.0302 6.41959 1.78017 0 0 1
92 6 1 -0.050311 11.6831 5.00943 2.03098 0 0 1
93 6 2 -0.174311 10.9372 4.28671 3.11899 0 0 1
94 6 2 -0.174311 11.201 4.40492 4.56619 0 0 1
95 6 1 -0.050311 12.268 5.24988 5.09419 0 0 1
96 6 1 -0.091211 12.2146 5.21676 6.65955 0 0 1
97 6 3 0.033922 10.8117 6.91995 2.72812 0 0 1
98 6 3 0.033922 10.047 6.33739 19.8994 0 0 0
99 6 3 0.033922 11.6962 7.03775 19.763 0 0 0
100 6 3 0.046089 11.6279 4.37114 19.7361 0 0 0
101 6 3 0.046089 12.7495 5.08994 2.26088 0 0 1
102 6 4 0.121889 10.1005 3.71842 2.72526 0 0 1
103 6 4 0.121889 10.4251 3.93905 5.16533 0 0 1
104 6 3 0.046089 12.1934 6.28432 4.7464 0 0 1
105 6 3 0.046089 13.2697 4.93877 4.78372 0 0 1
106 6 3 0.033922 13.1154 5.71299 7.03241 0 0 1
107 6 3 0.033922 11.3842 5.82595 7.0283 0 0 1
108 6 3 0.033922 12.2086 4.17663 6.99817 0 0 1
109 7 1 -0.091211 34.7746 22.3155 3.90301 -1 0 0
110 7 1 -0.050311 34.5436 -1.23898 3.21824 -1 1 0
111 7 2 -0.174311 33.2555 -1.29806 2.46941 -1 1 0
112 7 2 -0.174311 32.7257 -0.373863 1.55283 -1 1 0
113 7 1 -0.050311 33.434 0.802717 19.5187 -1 1 -1
114 7 1 -0.091211 32.3963 2.0114 19.5873 -1 1 -1
115 7 3 0.033922 34.5926 21.4706 3.23246 -1 0 0
116 7 3 0.033922 34.0031 22.1284 4.65554 -1 0 0
117 7 3 0.033922 35.7865 22.1547 4.28645 -1 0 0
118 7 3 0.046089 34.4623 -0.422788 3.94202 -1 1 0
119 7 3 0.046089 35.3489 -1.0369 2.50598 -1 1 0
120 7 4 0.121889 32.5681 22.8028 2.81655 -1 0 0
121 7 4 0.121889 31.8461 -0.803063 19.6755 -1 1 -1
122 7 3 0.046089 33.6753 0.675865 18.4593 -1 1 -1
123 7 3 0.046089 34.3069 1.11933 1.50512 -1 1 0
124 7 3 0.033922 32.3346 2.19877 2.07148 -1 1 0
125 7 3 0.033922 32.7642 2.93382 19.1286 -1 1 -1
126 7 3 0.033922 31.4372 1.75776 19.1263 -1 1 -1
127 8 1 -0.091211 38.4848 8.7321 2.24078 -1 0 1
128 8 1 -0.050311 39.0875 9.14717 3.55462 -1 0 1
129 8 2 -0.174311 39.9999 10.3182 3.38441 -1 0 1
130 8 2 -0.174311 41.3675 10.1513 3.41238 -1 0 1
131 8 1 -0.050311 -1.98413 8.83118 3.36786 0 0 1
132 8 1 -0.091211 -0.501635 8.95211 3.50418 0 0 1
133 8 3 0.033922 37.7358 7.94156 2.34408 -1 0 1
134 8 3 0.033922 39.2159 8.38869 1.50305 -1 0 1
135 8 3 0.033922 38.0028 9.62641 1.83521 -1 0 1
136 8 3 0.046089 38.3274 9.4516 4.28009 -1 0 1
137 8 3 0.046089 39.6229 8.27639 3.94402 -1 0 1
138 8 4 0.121889 39.5311 11.2951 3.32245 -1 0 1
139 8 4 0.121889 -2.15059 11.0638 3.43486 0 0 1
140 8 3 0.046089 -2.29224 8.40607 2.40816 0 0 1
141 8 3 0.046089 -2.34952 8.13606 4.1294 0 0 1
142 8 3 0.033922 0.0184082 8.10232 3.0525 0 0 1
143 8 3 0.033922 -0.129956 9.87738 3.05435 0 0 1
144 8 3 0.033922 -0.27446 8.86274 4.57054 0 0 1
145 9 1 -0.091211 32.4737 18.0357 6.95474 -1 0 1
146 9 1 -0.050311 33.7697 18.5003 7.56645 -1 0 1
147 9 2 -0.174311 34.1987 19.8387 6.9866 -1 0 1
148 9 2 -0.174311 35.4923 20.4167 7.03064 -1 0 1
149 9 1 -0.050311 36.6895 19.8796 7.779 -1 0 1
150 9 1 -0.091211 37.9535 20.5639 7.44032 -1 0 1
151 9 3 0.033922 31.6463 18.7164 7.17534 -1 0 1
152 9 3 0.033922 32.32 17.061 7.42684 -1 0 1
153 9 3 0.033922 32.5369 17.9101 5.86986 -1 0 1
154 9 3 0.046089 33.582 18.6563 8.63282 -1 0 1
155 9 3 0.046089 34.6205 17.8136 7.53206 -1 0 1
156 9 4 0.121889 33.438 20.3468 6.40243 -1 0 1
157 9 4 0.121889 35.645 21.3478 6.49429 -1 0 1
158 9 3 0.046089 36.7505 18.7982 7.62619 -1 0 1
159 9 3 0.046089 36.4645 19.9385 8.84793 -1 0 1
160 9 3 0.033922 37.9257 21.6386 7.6423 -1 0 1
161 9 3 0.033922 38.7901 20.1001 7.9711 -1 0 1
162 9 3 0.033922 38.1421 20.5391 6.36304 -1 0 1
163 10 1 -0.091211 8.47199 6.31953 7.77194 0 0 1
164 10 1 -0.050311 7.8675 7.26574 6.81558 0 0 1
165 10 2 -0.174311 8.95044 8.0431 6.06434 0 0 1
166 10 2 -0.174311 9.48457 9.27606 6.43119 0 0 1
167 10 1 -0.050311 9.16271 9.97212 7.72017 0 0 1
168 10 1 -0.091211 8.30002 11.1995 7.37289 0 0 1
169 10 3 0.033922 9.17134 5.64022 7.27588 0 0 1
170 10 3 0.033922 7.68197 5.7302 8.24648 0 0 1
171 10 3 0.033922 8.96106 6.91421 8.54901 0 0 1
172 10 3 0.046089 7.29138 6.7392 6.04909 0 0 1
173 10 3 0.046089 7.20911 7.95449 7.35296 0 0 1
174 10 4 0.121889 9.28121 7.66635 5.10166 0 0 1
175 10 4 0.121889 10.1622 9.77295 5.74422 0 0 1
176 10 3 0.046089 10.0642 10.3354 8.22206 0 0 1
177 10 3 0.046089 8.66523 9.30156 8.42693 0 0 1
178 10 3 0.033922 8.69497 11.8063 6.55288 0 0 1
179 10 3 0.033922 7.26436 10.8735 7.23965 0 0 1
180 10 3 0.033922 8.24998 11.78 8.29875 0 0 1
181 11 1 -0.091211 39.8703 15.4798 15.8802 -1 0 0
182 11 1 -0.050311 40.0856 14.8889 14.432 -1 0 0
183 11 2 -0.174311 40.4668 13.4643 14.3941 -1 0 0
184 11 2 -0.174311 -2.45853 12.8554 13.9548 0 0 0
185 11 1 -0.050311 -1.20329 13.5807 13.4996 0 0 0
186 11 1 -0.091211 -1.09175 13.7065 11.9672 0 0 0
187 11 3 0.033922 39.1742 14.8836 16.4774 -1 0 0
188 11 3 0.033922 39.4718 16.4978 15.8425 -1 0 0
189 11 3 0.033922 40.7566 15.4908 16.5214 -1 0 0
190 11 3 0.046089 39.1721 15.0357 13.8485 -1 0 0
191 11 3 0.046089 40.8728 15.4402 13.9094 -1 0 0
192 11 4 0.121889 39.8001 12.7795 14.9084 -1 0 0
193 11 4 0.121889 -2.27141 11.7971 14.1063 0 0 0
194 11 3 0.046089 -0.345029 12.9609 13.7751 0 0 0
195 11 3 0.046089 -0.989818 14.5706 13.9132 0 0 0
196 11 3 0.033922 -1.82421 14.4343 11.6061 0 0 0
197 11 3 0.033922 -0.0985659 13.9885 11.6056 0 0 0
198 11 3 0.033922 -1.15767 12.6903 11.5675 0 0 0
199 12 1 -0.091211 4.30851 12.7448 5.6563 0 0 0
200 12 1 -0.050311 4.44344 11.2096 5.62983 0 0 0
201 12 2 -0.174311 4.09259 10.8634 4.22375 0 0 0
202 12 2 -0.174311 3.60707 9.58134 3.848 0 0 0
203 12 1 -0.050311 3.84526 8.35501 4.72599 0 0 0
204 12 1 -0.091211 2.67668 8.00903 5.63001 0 0 0
205 12 3 0.033922 3.31984 13.1011 5.35255 0 0 0
206 12 3 0.033922 5.14133 13.1731 5.09095 0 0 0
207 12 3 0.033922 4.58577 13.0934 6.65547 0 0 0
208 12 3 0.046089 5.47974 10.9656 5.88116 0 0 0
209 12 3 0.046089 3.72228 10.8067 6.34696 0 0 0
210 12 4 0.121889 3.98673 11.5784 3.4141 0 0 0
211 12 4 0.121889 3.08951 9.48008 2.89934 0 0 0
212 12 3 0.046089 4.67369 8.58836 5.4012 0 0 0
213 12 3 0.046089 4.13708 7.45269 4.18076 0 0 0
214 12 3 0.033922 1.6952 8.00585 5.14696 0 0 0
215 12 3 0.033922 2.87157 7.02227 6.06003 0 0 0
216 12 3 0.033922 2.51685 8.71269 6.45219 0 0 0
217 13 1 -0.091211 -2.22971 12.9142 18.3011 0 0 0
218 13 1 -0.050311 -0.939049 12.2308 18.6382 0 0 0
219 13 2 -0.174311 0.17857 12.3794 17.59 0 0 0
220 13 2 -0.174311 1.51276 12.2915 17.8955 0 0 0
221 13 1 -0.050311 2.08144 11.9126 19.289 0 0 0
222 13 1 -0.091211 2.2359 13.1693 1.51059 0 0 1
223 13 3 0.033922 -2.61759 12.7289 17.2951 0 0 0
224 13 3 0.033922 -2.23683 14.003 18.4062 0 0 0
225 13 3 0.033922 41.1782 12.4901 19.0294 -1 0 0
226 13 3 0.046089 -0.603539 12.617 19.6051 0 0 0
227 13 3 0.046089 -1.05984 11.1453 18.6984 0 0 0
228 13 4 0.121889 0.0173571 12.7974 16.6014 0 0 0
229 13 4 0.121889 2.24404 12.467 17.1129 0 0 0
230 13 3 0.046089 2.99419 11.3191 19.1829 0 0 0
231 13 3 0.046089 1.41149 11.2106 19.7939 0 0 0
232 13 3 0.033922 3.17199 13.646 19.7973 0 0 0
233 13 3 0.033922 1.33114 13.7528 1.31691 0 0 1
234 13 3 0.033922 2.41214 13.0146 2.57911 0 0 1
235 14 1 -0.091211 12.7254 7.21492 9.79245 0 0 0
236 14 1 -0.050311 11.5716 8.18424 10.0316 0 0 0
237 14 2 -0.174311 10.8845 7.72454 11.2272 0 0 0
238 14 2 -0.174311 10.6047 8.58544 12.3274 0 0 0
239 14 1 -0.050311 10.8261 10.127 12.3275 0 0 0
240 14 1 -0.091211 12.178 10.5174 12.8907 0 0 0
241 14 3 0.033922 12.3248 6.24149 9.49498 0 0 0
242 14 3 0.033922 13.2699 7.10364 10.7347 0 0 0
243 14 3 0.033922 13.4503 7.57627 9.05713 0 0 0
244 14 3 0.046089 11.932 9.19959 10.2206 0 0 0
245 14 3 0.046089 10.8821 8.06525 9.19073 0 0 0
246 14 4 0.121889 10.5958 6.6825 11.3207 0 0 0
247 14 4 0.121889 10.3256 8.12129 13.268 0 0 0
248 14 3 0.046089 10.072 10.6405 12.9312 0 0 0
249 14 3 0.046089 10.7251 10.6502 11.3721 0 0 0
250 14 3 0.033922 12.2381 11.5972 13.0554 0 0 0
251 14 3 0.033922 12.386 10.0291 13.8472 0 0 0
252 14 3 0.033922 12.9445 10.2067 12.1747 0 0 0
253 15 1 -0.091211 -1.3228 16.6714 19.4432 0 0 0
254 15 1 -0.050311 0.174233 17.1809 19.4306 0 0 0
255 15 2 -0.174311 1.06846 16.3511 18.5531 0 0 0
256 15 2 -0.174311 2.42454 16.4971 18.3226 0 0 0
257 15 1 -0.050311 3.24713 17.6043 18.7434 0 0 0
258 15 1 -0.091211 3.93386 18.2459 17.4837 0 0 0
259 15 3 0.033922 -1.64367 16.5402 18.4057 0 0 0
260 15 3 0.033922 -2.0872 17.3025 1.31401 0 0 1
261 15 3 0.033922 -1.33392 15.668 19.8788 0 0 0
262 15 3 0.046089 0.226766 18.2323 19.1331 0 0 0
263 15 3 0.046089 0.543409 17.2042 1.86829 0 0 1
264 15 4 0.121889 0.626336 15.5833 17.9262 0 0 0
265 15 4 0.121889 2.93154 15.7834 17.6811 0 0 0
266 15 3 0.046089 4.08028 17.3096 19.3881 0 0 0
267 15 3 0.046089 2.65106 18.3558 19.2692 0 0 0
268 15 3 0.033922 3.23071 18.8223 16.8755 0 0 0
269 15 3 0.033922 4.73785 18.902 17.8296 0 0 0
270 15 3 0.033922 4.38269 17.4897 16.833 0 0 0
271 16 1 -0.091211 4.69096 3.92004 7.44196 0 1 0
272 16 1 -0.050311 5.48679 2.81323 8.09505 0 1 0
273 16 2 -0.174311 6.97913 3.13362 8.0497 0 1 0
274 16 2 -0.174311 7.84556 3.11691 7.02971 0 1 0
275 16 1 -0.050311 7.43634 2.63413 5.60116 0 1 0
276 16 1 -0.091211 8.45674 1.68661 4.95044 0 1 0
277 16 3 0.033922 5.02754 4.88346 7.83582 0 1 0
278 16 3 0.033922 3.62134 3.82015 7.64828 0 1 0
279 16 3 0.033922 4.91787 3.88184 6.37249 0 1 0
280 16 3 0.046089 5.22753 2.8007 9.15775 0 1 0
281 16 3 0.046089 5.20457 1.83227 7.70177 0 1 0
282 16 4 0.121889 7.40407 3.48127 8.98599 0 1 0
283 16 4 0.121889 8.85187 3.46522 7.2396 0 1 0
284 16 3 0.046089 7.30304 3.54608 5.01193 0 1 0
285 16 3 0.046089 6.45862 2.14779 5.66571 0 1 0
286 16 3 0.033922 8.36416 0.703704 5.42153 0 1 0
287 16 3 0.033922 8.07859 1.53162 3.9357 0 1 0
288 16 3 0.033922 9.45584 2.12879 4.89638 0 1 0
289 17 1 -0.091211 5.00178 14.3798 16.4314 0 0 0
290 17 1 -0.050311 5.73628 13.0955 16.161 0 0 0
291 17 2 -0.174311 5.12108 12.562 14.9152 0 0 0
292 17 2 -0.174311 5.75436 12.3519 13.7417 0 0 0
293 17 1 -0.050311 7.14792 12.8109 13.4294 0 0 0
294 17 1 -0.091211 7.30291 12.9847 11.9043 0 0 0
295 17 3 0.033922 5.04074 14.6934 17.4787 0 0 0
296 17 3 0.033922 3.93969 14.3092 16.1791 0 0 0
297 17 3 0.033922 5.58779 15.1492 15.9203 0 0 0
298 17 3 0.046089 6.80859 13.2629 16.024 0 0 0
299 17 3 0.046089 5.55697 12.409 16.9937 0 0 0
300 17 4 0.121889 4.05388 12.366 14.8883 0 0 0
301 17 4 0.121889 5.23737 11.817 12.9514 0 0 0
302 17 3 0.046089 7.89955 12.1217 13.8253 0 0 0
303 17 3 0.046089 7.35772 13.7644 13.9227 0 0 0
304 17 3 0.033922 7.00511 12.0532 11.4141 0 0 0
305 17 3 0.033922 6.72952 13.838 11.5304 0 0 0
306 17 3 0.033922 8.33985 13.1177 11.5822 0 0 0
307 18 1 -0.091211 39.6248 12.1159 11.432 -1 0 1
308 18 1 -0.050311 38.7059 11.5255 10.3478 -1 0 1
309 18 2 -0.174311 39.1757 12.0297 8.95507 -1 0 1
310 18 2 -0.174311 39.4327 11.3644 7.79176 -1 0 1
311 18 1 -0.050311 39.0962 9.91724 7.38862 -1 0 1
312 18 1 -0.091211 40.4403 9.15133 7.28653 -1 0 1
313 18 3 0.033922 39.3243 11.7303 12.4106 -1 0 1
314 18 3 0.033922 39.4907 13.2011 11.4005 -1 0 1
315 18 3 0.033922 40.6817 11.9138 11.2353 -1 0 1
316 18 3 0.046089 38.7323 10.4319 10.3546 -1 0 1
317 18 3 0.046089 37.6618 11.8188 10.4905 -1 0 1
318 18 4 0.121889 39.5611 13.0442 8.93667 -1 0 1
319 18 4 0.121889 39.7064 11.8915 6.88329 -1 0 1
320 18 3 0.046089 38.4671 9.93895 6.49396 -1 0 1
321 18 3 0.046089 38.4891 9.51143 8.20312 -1 0 1
322 18 3 0.033922 41.0759 9.72893 6.60909 -1 0 1
323 18 3 0.033922 40.8892 9.12188 8.28369 -1 0 1
324 18 3 0.033922 40.179 8.16851 6.88355 -1 0 1
325 19 1 -0.091211 13.0224 8.88516 6.39409 0 0 0
326 19 1 -0.050311 13.6295 8.8815 4.97275 0 0 0
327 19 2 -0.174311 12.4685 8.85255 3.98499 0 0 0
328 19 2 -0.174311 12.5698 9.35875 2.73459 0 0 0
329 19 1 -0.050311 13.8348 10.0149 2.13545 0 0 0
330 19 1 -0.091211 13.8956 9.68174 19.3023 0 0 -1
331 19 3 0.033922 13.827 8.81045 7.13153 0 0 0
332 19 3 0.033922 12.2819 8.11788 6.63787 0 0 0
333 19 3 0.033922 12.5089 9.83694 6.5584 0 0 0
334 19 3 0.046089 14.2318 9.78408 4.83417 0 0 0
335 19 3 0.046089 14.3094 8.02563 4.92962 0 0 0
336 19 4 0.121889 11.5315 8.3922 4.28185 0 0 0
337 19 4 0.121889 11.6847 9.22311 2.12117 0 0 0
338 19 3 0.046089 14.7697 9.65132 2.5718 0 0 0
339 19 3 0.046089 13.7844 11.0945 2.30406 0 0 0
340 19 3 0.033922 12.9862 10.0101 18.7906 0 0 -1
341 19 3 0.033922 14.7433 10.1868 18.8302 0 0 -1
342 19 3 0.033922 13.9758 8.59183 19.2552 0 0 -1
343 20 1 -0.091211 11.9039 22.028 13.7616 0 -1 0
344 20 1 -0.050311 11.6154 21.1412 12.515 0 -1 0
345 20 2 -0.174311 10.4352 21.507 11.7316 0 -1 0
346 20 2 -0.174311 10.2939 21.279 10.3294 0 -1 0
347 20 1 -0.050311 11.2978 20.6363 9.42023 0 -1 0
348 20 1 -0.091211 10.6917 19.9002 8.22697 0 -1 0
349 20 3 0.033922 11.0078 22.0169 14.389 0 -1 0
350 20 3 0.033922 11.9928 23.0631 13.4191 0 -1 0
351 20 3 0.033922 12.7459 21.6041 14.3166 0 -1 0
352 20 3 0.046089 12.5279 21.1595 11.912 0 -1 0
353 20 3 0.046089 11.5342 20.1275 12.9181 0 -1 0
354 20 4 0.121889 9.73997 22.133 12.2818 0 -1 0
355 20 4 0.121889 9.29273 21.4941 9.9696 0 -1 0
356 20 3 0.046089 11.9582 19.939 9.94393 0 -1 0
357 20 3 0.046089 12.0161 21.4444 9.25416 0 -1 0
358 20 3 0.033922 10.482 18.8593 8.48986 0 -1 0
359 20 3 0.033922 9.8349 20.4835 7.87744 0 -1 0
360 20 3 0.033922 11.3806 19.7706 7.38709 0 -1 0
361 21 1 -0.091211 3.80967 21.1746 15.6649 0 -1 0
362 21 1 -0.050311 2.35702 21.0427 15.4123 0 -1 0
363 21 2 -0.174311 1.63529 22.2835 15.9517 0 -1 0
364 21 2 -0.174311 0.891791 22.315 17.059 0 -1 0
365 21 1 -0.050311 0.779452 21.1704 18.0471 0 -1 0
366 21 1 -0.091211 -0.228156 21.4813 19.1034 0 -1 0
367 21 3 0.033922 4.32025 22.0747 15.3104 0 -1 0
368 21 3 0.033922 4.31543 20.3138 15.2179 0 -1 0
369 21 3 0.033922 4.03094 21.2333 16.7346 0 -1 0
370 21 3 0.046089 2.21884 21.0087 14.3276 0 -1 0
371 21 3 0.046089 1.96464 20.0931 15.7878 0 -1 0
372 21 4 0.121889 1.58389 23.167 15.3234 0 -1 0
373 21 4 0.121889 0.403097 -1.62034 17.3303 0 0 0
374 21 3 0.046089 1.77104 20.9585 18.4576 0 -1 0
375 21 3 0.046089 0.367247 20.2877 17.5497 0 -1 0
376 21 3 0.033922 -1.09816 21.721 18.4851 0 -1 0
377 21 3 0.033922 -0.467986 20.6107 19.7207 0 -1 0
378 21 3 0.033922 0.170345 22.3504 19.6349 0 -1 0
379 22 1 -0.091211 5.80662 20.2823 12.2257 0 -1 0
380 22 1 -0.050311 6.74972 21.3721 12.7076 0 -1 0
381 22 2 -0.174311 7.50858 20.901 13.9434 0 -1 0
382 22 2 -0.174311 7.64987 21.6625 15.1187 0 -1 0
383 22 1 -0.050311 7.33605 23.1666 15.1868 0 -1 0
384 22 1 -0.091211 8.41196 -1.13105 16.037 0 0 0
385 22 3 0.033922 5.24077 20.6109 11.3491 0 -1 0
386 22 3 0.033922 5.14872 20.1199 13.0845 0 -1 0
387 22 3 0.033922 6.30904 19.3313 12.0264 0 -1 0
388 22 3 0.046089 7.49042 21.7045 11.9744 0 -1 0
389 22 3 0.046089 6.14325 22.243 12.9727 0 -1 0
390 22 4 0.121889 7.97435 19.9207 13.9337 0 -1 0
391 22 4 0.121889 8.02201 21.0812 15.9563 0 -1 0
392 22 3 0.046089 6.43131 23.4765 15.7179 0 -1 0
393 22 3 0.046089 7.2457 -1.19145 14.222 0 0 0
394 22 3 0.033922 8.49678 23.2244 17.0009 0 -1 0
395 22 3 0.033922 9.42548 -1.14911 15.6258 0 0 0
396 22 3 0.033922 8.18238 -0.0668016 16.1431 0 0 0
397 23 1 -0.091211 1.65397 3.4358 17.8176 0 0 -1
398 23 1 -0.050311 2.3601 4.74771 17.6883 0 0 -1
399 23 2 -0.174311 1.85208 5.73786 18.6341 0 0 -1
400 23 2 -0.174311 2.4404 7.03654 18.7107 0 0 -1
401 23 1 -0.050311 3.62151 7.4177 17.8562 0 0 -1
402 23 1 -0.091211 3.78325 8.96967 17.8785 0 0 -1
403 23 3 0.033922 2.21909 2.64052 17.3229 0 0 -1
404 23 3 0.033922 0.681951 3.52028 17.323 0 0 -1
405 23 3 0.033922 1.60805 3.15265 18.8733 0 0 -1
406 23 3 0.046089 3.42851 4.58699 17.8595 0 0 -1
407 23 3 0.046089 2.271 5.07305 16.6476 0 0 -1
408 23 4 0.121889 0.976646 5.52286 19.2386 0 0 -1
409 23 4 0.121889 1.88283 7.70605 19.3579 0 0 -1
410 23 3 0.046089 3.46591 7.09465 16.8227 0 0 -1
411 23 3 0.046089 4.53136 6.92543 18.2119 0 0 -1
412 23 3 0.033922 4.18975 9.22865 18.8605 0 0 -1
413 23 3 0.033922 4.47694 9.34891 17.1224 0 0 -1
414 23 3 0.033922 2.79051 9.4089 17.7437 0 0 -1
415 24 1 -0.091211 6.68859 10.6809 1.61571 0 0 0
416 24 1 -0.050311 6.63398 12.1282 1.73534 0 0 0
417 24 2 -0.174311 7.97223 12.8324 1.72168 0 0 0
418 24 2 -0.174311 8.01454 14.2254 1.83905 0 0 0
419 24 1 -0.050311 6.79484 15.0792 2.02086 0 0 0
420 24 1 -0.091211 7.02732 16.0999 3.20289 0 0 0
421 24 3 0.033922 5.71646 10.1828 1.67446 0 0 0
422 24 3 0.033922 7.13903 10.3726 2.56374 0 0 0
423 24 3 0.033922 7.18069 10.3607 19.2845 0 0 -1
424 24 3 0.046089 6.02942 12.5118 19.5001 0 0 -1
425 24 3 0.046089 6.08506 12.3122 2.66352 0 0 0
426 24 4 0.121889 8.81953 12.1634 1.60957 0 0 0
427 24 4 0.121889 9.00149 14.6769 1.84633 0 0 0
428 24 3 0.046089 5.89831 14.4963 2.2513 0 0 0
429 24 3 0.046089 6.68658 15.6765 19.7026 0 0 -1
430 24 3 0.033922 6.84829 15.5609 4.13782 0 0 0
431 24 3 0.033922 7.99977 16.599 3.24582 0 0 0
432 24 3 0.033922 6.2922 16.9038 3.10348 0 0 0
433 25 1 -0.091211 5.5858 3.50069 15.5912 0 0 0
434 25 1 -0.050311 6.52454 4.79114 15.6768 0 0 0
435 25 2 -0.174311 6.80328 5.59559 14.3885 0 0 0
436 25 2 -0.174311 7.39126 6.84782 14.2996 0 0 0
437 25 1 -0.050311 7.83273 7.67994 15.4908 0 0 0
438 25 1 -0.091211 6.87733 8.85823 15.5046 0 0 0
439 25 3 0.033922 4.54854 3.84682 15.5608 0 0 0
440 25 3 0.033922 5.72211 2.94722 16.5248 0 0 0
441 25 3 0.033922 5.74785 2.81456 14.7547 0 0 0
442 25 3 0.046089 6.00925 5.5373 16.2886 0 0 0
443 25 3 0.046089 7.47581 4.60876 16.1852 0 0 0
444 25 4 0.121889 6.42075 5.24122 13.4366 0 0 0
445 25 4 0.121889 7.51039 7.25633 13.3011 0 0 0
446 25 3 0.046089 8.8854 7.92517 15.3223 0 0 0
447 25 3 0.046089 7.81025 6.98609 16.3362 0 0 0
448 25 3 0.033922 5.82347 8.5736 15.4338 0 0 0
449 25 3 0.033922 7.09024 9.48324 16.3768 0 0 0
450 25 3 0.033922 7.08525 9.46355 14.6175 0 0 0
451 26 1 -0.091211 4.37359 16.3086 12.9798 0 -1 0
452 26 1 -0.050311 2.98055 15.6013 13.1009 0 -1 0
453 26 2 -0.174311 2.17881 16.3979 14.1567 0 -1 0
454 26 2 -0.174311 0.991028 17.0893 13.857 0 -1 0
455 26 1 -0.050311 0.275745 17.1848 12.4864 0 -1 0
456 26 1 -0.091211 -1.15919 17.6527 12.6579 0 -1 0
457 26 3 0.033922 4.68554 16.6685 13.9646 0 -1 0
458 26 3 0.033922 4.07817 17.168 12.3709 0 -1 0
459 26 3 0.033922 5.13692 15.6989 12.4877 0 -1 0
460 26 3 0.046089 2.508 15.5802 12.1145 0 -1 0
461 26 3 0.046089 3.08878 14.5523 13.3915 0 -1 0
462 26 4 0.121889 2.63379 16.5342 15.1327 0 -1 0
463 26 4 0.121889 0.752312 17.7481 14.6859 0 -1 0
464 26 3 0.046089 0.375297 16.2437 11.9378 0 -1 0
465 26 3 0.046089 0.682459 17.944 11.8121 0 -1 0
466 26 3 0.033922 -1.84113 17.64 11.8026 0 -1 0
467 26 3 0.033922 -1.58257 17.0525 13.4685 0 -1 0
468 26 3 0.033922 -1.22027 18.6387 13.1276 0 -1 0
469 27 1 -0.091211 13.9229 14.9871 19.5757 0 0 -1
470 27 1 -0.050311 14.7901 13.9594 1.63219 0 0 0
471 27 2 -0.174311 16.2105 13.8439 19.6902 0 0 -1
472 27 2 -0.174311 17.2907 14.5147 1.63575 0 0 0
473 27 1 -0.050311 17.1366 15.5128 2.83238 0 0 0
474 27 1 -0.091211 17.7592 16.8404 2.5244 0 0 0
475 27 3 0.033922 13.0264 15.1002 1.60035 0 0 0
476 27 3 0.033922 13.637 14.7257 18.5526 0 0 -1
477 27 3 0.033922 14.396 15.9714 19.513 0 0 -1
478 27 3 0.046089 14.6973 14.1167 2.71077 0 0 0
479 27 3 0.046089 14.2582 13.0243 1.43376 0 0 0
480 27 4 0.121889 16.3766 13.1979 18.834 0 0 -1
481 27 4 0.121889 18.3066 14.4194 19.8577 0 0 -1
482 27 3 0.046089 17.7706 15.1627 3.65225 0 0 0
483 27 3 0.046089 16.1476 15.6417 3.28184 0 0 0
484 27 3 0.033922 18.813 16.7634 2.24119 0 0 0
485 27 3 0.033922 17.1997 17.3296 1.72171 0 0 0
486 27 3 0.033922 17.7294 17.4429 3.43692 0 0 0
487 28 1 -0.091211 7.17941 19.7143 1.91483 0 -1 0
488 28 1 -0.050311 8.19963 20.5856 2.70253 0 -1 0
489 28 2 -0.174311 7.66774 21.9199 3.28674 0 -1 0
490 28 2 -0.174311 8.08114 22.3774 4.54795 0 -1 0
491 28 1 -0.050311 9.12548 21.824 5.45979 0 -1 0
492 28 1 -0.091211 10.4489 21.5944 4.8532 0 -1 0
493 28 3 0.033922 7.73724 18.9735 1.33461 0 -1 0
494 28 3 0.033922 6.6545 20.2646 19.7204 0 -1 -1
495 28 3 0.033922 6.33301 19.2993 2.46985 0 -1 0
496 28 3 0.046089 8.6724 19.9918 3.4903 0 -1 0
497 28 3 0.046089 8.96634 20.9354 2.0051 0 -1 0
498 28 4 0.121889 6.85299 22.3901 2.74534 0 -1 0
499 28 4 0.121889 7.5286 -1.63151 4.92025 0 0 0
500 28 3 0.046089 8.80389 20.875 5.89867 0 -1 0
501 28 3 0.046089 9.25248 22.5073 6.30457 0 -1 0
502 28 3 0.033922 11.0563 20.9733 5.51805 0 -1 0
503 28 3 0.033922 10.4237 21.1062 3.87456 0 -1 0
504 28 3 0.033922 10.9353 22.5427 4.60691 0 -1 0
505 29 1 -0.091211 6.56551 6.15262 2.52919 0 0 0
506 29 1 -0.050311 5.63256 5.06523 3.0846 0 0 0
507 29 2 -0.174311 4.20988 5.20629 2.52864 0 0 0
508 29 2 -0.174311 3.26945 4.2422 2.68536 0 0 0
509 29 1 -0.050311 3.52299 3.01943 3.55228 0 0 0
510 29 1 -0.091211 2.78317 1.90894 2.96798 0 0 0
511 29 3 0.033922 6.34842 7.09817 3.03456 0 0 0
512 29 3 0.033922 6.3726 6.31885 1.4653 0 0 0
513 29 3 0.033922 7.60505 5.93323 2.7897 0 0 0
514 29 3 0.046089 6.0268 4.09052 2.78278 0 0 0
515 29 3 0.046089 5.52855 4.98485 4.17062 0 0 0
516 29 4 0.121889 3.905 6.05577 1.92578 0 0 0
517 29 4 0.121889 2.24204 4.42707 2.38823 0 0 0
518 29 3 0.046089 3.15854 3.27244 4.55221 0 0 0
519 29 3 0.046089 4.5835 2.76472 3.63638 0 0 0
520 29 3 0.033922 1.70359 2.06791 3.04464 0 0 0
521 29 3 0.033922 3.17797 1.67125 1.97585 0 0 0
522 29 3 0.033922 2.93813 0.992298 3.5445 0 0 0
523 30 1 -0.091211 1.56532 -1.34277 7.304 0 1 1
524 30 1 -0.050311 2.84706 -1.4676 8.06816 0 1 1
525 30 2 -0.174311 4.03653 -0.984967 7.20654 0 1 1
526 30 2 -0.174311 5.39455 -1.11863 7.43797 0 1 1
527 30 1 -0.050311 6.06931 -1.64721 8.70009 0 1 1
528 30 1 -0.091211 7.48593 -1.09185 8.89844 0 1 1
529 30 3 0.033922 1.63744 22.9745 6.36021 0 0 1
530 30 3 0.033922 1.24803 -0.316829 7.09578 0 1 1
531 30 3 0.033922 0.768137 23.0332 7.87086 0 0 1
532 30 3 0.046089 2.81139 -0.951858 9.03223 0 1 1
533 30 3 0.046089 3.0938 22.3562 8.29217 0 0 1
534 30 4 0.121889 3.79305 -0.549514 6.2426 0 1 1
535 30 4 0.121889 6.09804 -0.909561 6.63831 0 1 1
536 30 3 0.046089 6.13457 22.1308 8.60373 0 0 1
537 30 3 0.046089 5.56634 -1.37824 9.63356 0 1 1
538 30 3 0.033922 8.00075 -1.60501 9.71593 0 1 1
539 30 3 0.033922 8.03248 -1.36094 7.98983 0 1 1
540 30 3 0.033922 7.56733 -0.00398162 8.97896 0 1 1
541 31 1 -0.091211 20.0157 1.86209 13.9464 0 1 0
542 31 1 -0.050311 21.3341 2.21197 14.5276 0 1 0
543 31 2 -0.174311 22.4711 1.69465 13.6078 0 1 0
544 31 2 -0.174311 23.2717 2.35753 12.7079 0 1 0
545 31 1 -0.050311 23.0574 3.83901 12.278 0 1 0
546 31 1 -0.091211 24.4083 4.59496 12.0594 0 1 0
547 31 3 0.033922 20.0547 0.876611 13.4733 0 1 0
548 31 3 0.033922 19.6951 2.6171 13.2227 0 1 0
549 31 3 0.033922 19.3892 1.69014 14.8266 0 1 0
550 31 3 0.046089 21.3084 3.2826 14.7505 0 1 0
551 31 3 0.046089 21.4208 1.58672 15.4211 0 1 0
552 31 4 0.121889 22.6571 0.627003 13.5486 0 1 0
553 31 4 0.121889 24.0056 1.79228 12.1424 0 1 0
554 31 3 0.046089 22.5346 4.36881 13.0797 0 1 0
555 31 3 0.046089 22.4181 3.85558 11.3905 0 1 0
556 31 3 0.033922 25.1265 4.37233 12.854 0 1 0
557 31 3 0.033922 24.8269 4.23148 11.1163 0 1 0
558 31 3 0.033922 24.1402 5.64551 11.9143 0 1 0
559 32 1 -0.091211 16.9414 22.0119 7.1489 0 0 0
560 32 1 -0.050311 15.794 22.7546 7.70195 0 0 0
561 32 2 -0.174311 14.4545 22.2965 7.06265 0 0 0
562 32 2 -0.174311 13.2361 22.9949 7.06856 0 0 0
563 32 1 -0.050311 13.0263 -0.646261 7.82222 0 1 0
564 32 1 -0.091211 11.5671 -0.170737 7.80913 0 1 0
565 32 3 0.033922 17.8875 22.5481 7.26726 0 0 0
566 32 3 0.033922 16.7528 21.7781 6.09699 0 0 0
567 32 3 0.033922 17.0083 21.0876 7.73009 0 0 0
568 32 3 0.046089 15.7859 22.5586 8.77817 0 0 0
569 32 3 0.046089 15.9283 -1.03736 7.5422 0 1 0
570 32 4 0.121889 14.4709 21.3817 6.47892 0 0 0
571 32 4 0.121889 12.4236 22.5027 6.54359 0 0 0
572 32 3 0.046089 13.7571 0.114654 7.53295 0 1 0
573 32 3 0.046089 13.3389 -0.795693 8.85985 0 1 0
574 32 3 0.033922 11.4442 0.660535 8.50949 0 1 0
575 32 3 0.033922 11.3026 0.186486 6.80956 0 1 0
576 32 3 0.033922 10.9141 -0.995133 8.11003 0 1 0
577 33 1 -0.091211 16.6387 9.04116 12.2228 0 0 0
578 33 1 -0.050311 16.8289 9.18324 10.6921 0 0 0
579 33 2 -0.174311 17.2024 10.5732 10.2197 0 0 0
580 33 2 -0.174311 16.5629 11.2961 9.25614 0 0 0
581 33 1 -0.050311 15.3268 10.8079 8.58471 0 0 0
582 33 1 -0.091211 14.5204 12.0217 8.17793 0 0 0
583 33 3 0.033922 15.992 9.77656 12.7101 0 0 0
584 33 3 0.033922 17.6651 9.21292 12.5602 0 0 0
585 33 3 0.033922 16.2542 8.03048 12.3878 0 0 0
586 33 3 0.046089 17.623 8.53221 10.3151 0 0 0
587 33 3 0.046089 15.9341 8.82604 10.1739 0 0 0
588 33 4 0.121889 18.0872 10.9325 10.7355 0 0 0
589 33 4 0.121889 17.0772 12.1898 8.91732 0 0 0
590 33 3 0.046089 14.7768 10.1023 9.21409 0 0 0
591 33 3 0.046089 15.6269 10.1343 7.77675 0 0 0
592 33 3 0.033922 14.4126 12.8646 8.86679 0 0 0
593 33 3 0.033922 15.0308 12.4576 7.31414 0 0 0
594 33 3 0.033922 13.549 11.7077 7.78494 0 0 0
595 34 1 -0.091211 16.3481 15.9633 6.59989 0 0 0
596 34 1 -0.050311 15.0919 16.4469 7.31718 0 0 0
597 34 2 -0.174311 15.047 16.1744 8.75707 0 0 0
598 34 2 -0.174311 14.9407 17.1023 9.79954 0 0 0
599 34 1 -0.050311 14.8989 18.6028 9.53865 0 0 0
600 34 1 -0.091211 14.7766 19.4202 10.8273 0 0 0
601 34 3 0.033922 17.2552 16.4285 6.99657 0 0 0
602 34 3 0.033922 16.3412 16.2685 5.54941 0 0 0
603 34 3 0.033922 16.3924 14.8867 6.78817 0 0 0
604 34 3 0.046089 15.0562 17.5284 7.15704 0 0 0
605 34 3 0.046089 14.2145 15.9684 6.87238 0 0 0
606 34 4 0.121889 15.2196 15.1532 9.08162 0 0 0
607 34 4 0.121889 15.0685 16.8009 10.8344 0 0 0
608 34 3 0.046089 14.039 18.7152 8.87187 0 0 0
609 34 3 0.046089 15.7682 18.868 8.92986 0 0 0
610 34 3 0.033922 13.9268 19.0942 11.4342 0 0 0
611 34 3 0.033922 15.6186 19.2613 11.5073 0 0 0
612 34 3 0.033922 14.6993 20.4643 10.5104 0 0 0
613 35 1 -0.091211 36.339 11.867 18.6778 -1 0 0
614 35 1 -0.050311 36.8491 10.7615 17.7647 -1 0 0
615 35 2 -0.174311 38.3499 10.82 17.6737 -1 0 0
616 35 2 -0.174311 39.1078 10.4607 16.571 -1 0 0