ITEM: TIMESTEP
90200
ITEM: NUMBER OF ATOMS
1800
ITEM: BOX BOUNDS pp pp pp
-4.9830274710696827e+00 4.3791042971068535e+01
7.0506013983834492e-01 2.0903595360162115e+01
1.9344147772488895e-01 2.1060292022274531e+01
ITEM: ATOMS id mol type q x y z ix iy iz
1 1 1 -0.091211 6.94893 7.522 16.7595 0 -1 0
2 1 1 -0.050311 5.74057 8.26198 16.0583 0 -1 0
3 1 2 -0.174311 5.82805 9.75232 16.3333 0 -1 0
4 1 2 -0.174311 5.20135 10.7624 15.6828 0 -1 0
5 1 1 -0.050311 4.33284 10.4955 14.4742 0 -1 0
6 1 1 -0.091211 3.19893 11.4582 14.5311 0 -1 0
7 1 3 0.033922 7.82785 8.00461 16.3222 0 -1 0
8 1 3 0.033922 7.07578 6.4896 16.421 0 -1 0
9 1 3 0.033922 6.93289 7.57479 17.852 0 -1 0
10 1 3 0.046089 5.71607 8.00161 14.9961 0 -1 0
11 1 3 0.046089 4.80104 7.96733 16.5349 0 -1 0
12 1 4 0.121889 6.3074 10.0701 17.2538 0 -1 0
13 1 4 0.121889 5.21441 11.8098 15.9672 0 -1 0
14 1 3 0.046089 3.95258 9.4715 14.4163 0 -1 0
15 1 3 0.046089 4.87161 10.6843 13.5411 0 -1 0
16 1 3 0.033922 2.62836 11.3552 13.6035 0 -1 0
17 1 3 0.033922 2.54389 11.3368 15.3988 0 -1 0
18 1 3 0.033922 3.59956 12.4709 14.4286 0 -1 0
19 2 1 -0.091211 4.95552 4.97967 8.54674 0 0 0
20 2 1 -0.050311 5.84411 3.88866 9.19864 0 0 0
21 2 2 -0.174311 5.18186 2.57494 9.37402 0 0 0
22 2 2 -0.174311 4.55236 2.00881 10.4863 0 0 0
23 2 1 -0.050311 4.40909 2.79158 11.767 0 0 0
24 2 1 -0.091211 2.98322 2.89543 12.3087 0 0 0
25 2 3 0.033922 4.04178 5.12942 9.12924 0 0 0
26 2 3 0.033922 4.60745 4.59307 7.58443 0 0 0
27 2 3 0.033922 5.59283 5.85344 8.38266 0 0 0
28 2 3 0.046089 6.76622 3.74219 8.62862 0 0 0
29 2 3 0.046089 6.27436 4.32449 10.105 0 0 0
30 2 4 0.121889 5.17164 2.02121 8.44059 0 0 0
31 2 4 0.121889 4.12902 1.01431 10.3879 0 0 0
32 2 3 0.046089 4.88097 3.77018 11.6397 0 0 0
33 2 3 0.046089 4.96515 2.3431 12.5954 0 0 0
34 2 3 0.033922 2.8327 3.48111 13.2203 0 0 0
35 2 3 0.033922 2.30926 3.38494 11.5997 0 0 0
36 2 3 0.033922 2.45149 1.94912 12.444 0 0 0
37 3 1 -0.091211 -2.11966 6.90436 14.3974 0 0 0
38 3 1 -0.050311 -1.05974 6.32299 15.2412 0 0 0
39 3 2 -0.174311 0.218494 6.27687 14.4456 0 0 0
40 3 2 -0.174311 1.48667 6.2601 14.9845 0 0 0
41 3 1 -0.050311 1.87863 6.53636 16.3881 0 0 0
42 3 1 -0.091211 3.02743 5.66425 16.9083 0 0 0
43 3 3 0.033922 -1.87454 7.96789 14.3244 0 0 0
44 3 3 0.033922 -3.14005 6.66526 14.7109 0 0 0
45 3 3 0.033922 -2.13437 6.54339 13.3648 0 0 0
46 3 3 0.046089 -1.00934 6.95498 16.1326 0 0 0
47 3 3 0.046089 -1.30869 5.28582 15.4837 0 0 0
48 3 4 0.121889 0.0708564 6.21548 13.3721 0 0 0
49 3 4 0.121889 2.28649 6.12426 14.2634 0 0 0
50 3 3 0.046089 1.00496 6.40956 17.0341 0 0 0
51 3 3 0.046089 2.14399 7.59695 16.353 0 0 0
52 3 3 0.033922 3.28522 5.98727 17.9211 0 0 0
53 3 3 0.033922 2.66284 4.63521 16.84 0 0 0
54 3 3 0.033922 3.90492 5.69659 16.2559 0 0 0
55 4 1 -0.091211 -3.14136 16.5098 17.6255 0 -1 0
56 4 1 -0.050311 -1.92772 17.403 17.4143 0 -1 0
57 4 2 -0.174311 -1.96457 18.2149 16.1216 0 -1 0
58 4 2 -0.174311 -0.958103 19.093 15.7188 0 -1 0
59 4 1 -0.050311 0.045149 19.7001 16.6511 0 -1 0
60 4 1 -0.091211 0.760839 20.674 15.7609 0 -1 0
61 4 3 0.033922 -4.03016 17.0943 17.8806 0 -1 0
62 4 3 0.033922 -2.94596 15.7877 18.4236 0 -1 0
63 4 3 0.033922 -3.33666 15.9361 16.7148 0 -1 0
64 4 3 0.046089 -1.81393 18.0663 18.2766 0 -1 0
65 4 3 0.046089 -0.989982 16.8425 17.3583 0 -1 0
66 4 4 0.121889 -2.64287 17.8346 15.3644 0 -1 0
67 4 4 0.121889 -0.983473 19.4917 14.7096 0 -1 0
68 4 3 0.046089 0.732839 18.9111 16.9691 0 -1 0
69 4 3 0.046089 -0.411232 20.1213 17.5517 0 -1 0
70 4 3 0.033922 0.00917879 1.15472 15.3482 0 0 0
71 4 3 0.033922 1.54008 1.03364 16.288 0 0 0
72 4 3 0.033922 1.19032 20.1539 14.8997 0 -1 0
73 5 1 -0.091211 -1.32468 9.28724 8.56503 0 0 0
74 5 1 -0.050311 -2.23039 9.70961 7.4161 0 0 0
75 5 2 -0.174311 -2.76594 11.1188 7.53893 0 0 0
76 5 2 -0.174311 -4.066 11.5299 7.45479 0 0 0
77 5 1 -0.050311 43.5494 10.6469 7.20975 -1 0 0
78 5 1 -0.091211 42.2765 11.5611 7.06768 -1 0 0
79 5 3 0.033922 -0.295394 9.59024 8.35193 0 0 0
80 5 3 0.033922 -1.32831 8.19684 8.65168 0 0 0
81 5 3 0.033922 -1.70147 9.69762 9.50644 0 0 0
82 5 3 0.046089 -1.72545 9.57621 6.45491 0 0 0
83 5 3 0.046089 -3.0908 9.03906 7.33439 0 0 0
84 5 4 0.121889 -2.0648 11.9231 7.73737 0 0 0
85 5 4 0.121889 -4.25632 12.5978 7.41899 0 0 0
86 5 3 0.046089 43.465 9.98797 8.07882 -1 0 0
87 5 3 0.046089 43.6932 10.0897 6.27945 -1 0 0
88 5 3 0.033922 42.3235 12.2625 6.22953 -1 0 0
89 5 3 0.033922 41.373 10.9701 6.89146 -1 0 0
90 5 3 0.033922 42.029 12.0959 7.98931 -1 0 0
91 6 1 -0.091211 5.79626 4.78368 20.7538 0 0 0
92 6 1 -0.050311 5.86736 3.65039 0.840751 0 0 1
93 6 2 -0.174311 6.96017 2.68723 0.53108 0 0 1
94 6 2 -0.174311 7.62136 2.06293 1.51282 0 0 1
95 6 1 -0.050311 7.56321 2.15802 3.02764 0 0 1
96 6 1 -0.091211 8.91962 1.85108 3.60611 0 0 1
97 6 3 0.033922 5.15716 5.60614 0.221123 0 0 1
98 6 3 0.033922 5.42528 4.43045 19.7872 0 0 0
99 6 3 0.033922 6.81515 5.14119 20.5786 0 0 0
100 6 3 0.046089 5.9276 4.06648 1.85064 0 0 1
101 6 3 0.046089 4.93631 3.07885 0.785041 0 0 1
102 6 4 0.121889 7.29826 2.371 20.4162 0 0 0
103 6 4 0.121889 8.35813 1.35727 1.14242 0 0 1
104 6 3 0.046089 6.86201 1.36188 3.29423 0 0 1
105 6 3 0.046089 7.24592 3.14502 3.37648 0 0 1
106 6 3 0.033922 8.99066 2.2247 4.63178 0 0 1
107 6 3 0.033922 9.06286 0.768885 3.67563 0 0 1
108 6 3 0.033922 9.73158 2.25596 2.99502 0 0 1
109 7 1 -0.091211 32.8624 3.05513 17.7101 -1 1 -1
110 7 1 -0.050311 32.5063 4.41779 17.0446 -1 1 -1
111 7 2 -0.174311 33.0732 4.53781 15.6628 -1 1 -1
112 7 2 -0.174311 32.3557 4.81891 14.5472 -1 1 -1
113 7 1 -0.050311 30.9027 5.16534 14.5597 -1 1 -1
114 7 1 -0.091211 30.4562 5.68283 13.1618 -1 1 -1
115 7 3 0.033922 33.9129 2.8116 17.5262 -1 1 -1
116 7 3 0.033922 32.3859 2.19701 17.2272 -1 1 -1
117 7 3 0.033922 32.6168 2.97069 18.7727 -1 1 -1
118 7 3 0.046089 31.4162 4.48543 16.9845 -1 1 -1
119 7 3 0.046089 32.9174 5.22356 17.6597 -1 1 -1
120 7 4 0.121889 34.1261 4.27443 15.6712 -1 1 -1
121 7 4 0.121889 32.9098 4.79831 13.6142 -1 1 -1
122 7 3 0.046089 30.6697 5.92011 15.3165 -1 1 -1
123 7 3 0.046089 30.3242 4.27109 14.8091 -1 1 -1
124 7 3 0.033922 30.3153 4.87425 12.4387 -1 1 -1
125 7 3 0.033922 29.5122 6.22901 13.2462 -1 1 -1
126 7 3 0.033922 31.2093 6.38221 12.7872 -1 1 -1
127 8 1 -0.091211 -3.67477 10.0783 1.04237 0 0 1
128 8 1 -0.050311 -4.96604 10.0694 1.86173 0 0 1
129 8 2 -0.174311 43.2892 8.62505 2.0222 -1 0 1
130 8 2 -0.174311 42.296 8.12481 2.82843 -1 0 1
131 8 1 -0.050311 41.5766 9.16298 3.63028 -1 0 1
132 8 1 -0.091211 40.2141 8.65218 4.17397 -1 0 1
133 8 3 0.033922 -3.89288 9.83313 20.8657 0 0 0
134 8 3 0.033922 -3.02005 9.30526 1.4551 0 0 1
135 8 3 0.033922 -3.23588 11.0802 1.04787 0 0 1
136 8 3 0.046089 -4.75774 10.4999 2.84557 0 0 1
137 8 3 0.046089 43.098 10.7434 1.37357 -1 0 1
138 8 4 0.121889 43.726 7.89725 1.34584 -1 0 1
139 8 4 0.121889 41.9951 7.08203 2.8283 -1 0 1
140 8 3 0.046089 41.3002 10.0216 3.01149 -1 0 1
141 8 3 0.046089 42.2157 9.55552 4.42662 -1 0 1
142 8 3 0.033922 39.6538 9.46385 4.64716 -1 0 1
143 8 3 0.033922 39.5975 8.28285 3.3493 -1 0 1
144 8 3 0.033922 40.336 7.84482 4.9019 -1 0 1
145 9 1 -0.091211 34.3029 6.94226 19.4259 -1 1 0
146 9 1 -0.050311 34.9204 7.19779 20.8032 -1 1 0
147 9 2 -0.174311 34.8455 8.63436 0.432066 -1 1 1
148 9 2 -0.174311 35.2467 8.95584 1.78719 -1 1 1
149 9 1 -0.050311 35.6327 7.93198 2.84045 -1 1 1
150 9 1 -0.091211 35.9288 8.52255 4.21776 -1 1 1
151 9 3 0.033922 33.2351 7.03684 19.6437 -1 1 0
152 9 3 0.033922 34.4285 5.91042 19.0852 -1 1 0
153 9 3 0.033922 34.7758 7.64726 18.736 -1 1 0
154 9 3 0.046089 34.4899 6.42349 0.577925 -1 1 1
155 9 3 0.046089 36.0023 7.05009 20.7362 -1 1 0
156 9 4 0.121889 34.4018 9.43061 20.7098 -1 1 0
157 9 4 0.121889 35.3283 9.99057 2.10432 -1 1 1
158 9 3 0.046089 36.5298 7.35025 2.60917 -1 1 1
159 9 3 0.046089 34.8428 7.18016 2.92675 -1 1 1
160 9 3 0.033922 34.9957 8.91707 4.6304 -1 1 1
161 9 3 0.033922 36.254 7.72619 4.89352 -1 1 1
162 9 3 0.033922 36.7305 9.2569 4.09717 -1 1 1
163 10 1 -0.091211 7.72253 9.56441 7.651 0 0 1
164 10 1 -0.050311 7.98761 8.07241 7.62615 0 0 1
165 10 2 -0.174311 9.08972 7.57282 6.65823 0 0 1
166 10 2 -0.174311 8.8823 6.87171 5.48713 0 0 1
167 10 1 -0.050311 7.59541 6.28631 4.86983 0 0 1
168 10 1 -0.091211 7.71789 6.47031 3.34446 0 0 1
169 10 3 0.033922 8.58355 10.1718 7.94475 0 0 1
170 10 3 0.033922 6.88366 9.83948 8.29698 0 0 1
171 10 3 0.033922 7.44846 9.87641 6.63898 0 0 1
172 10 3 0.046089 8.40426 7.76669 8.5903 0 0 1
173 10 3 0.046089 7.04725 7.53064 7.48896 0 0 1
174 10 4 0.121889 10.1234 7.6949 6.96596 0 0 1
175 10 4 0.121889 9.82862 6.69672 4.98523 0 0 1
176 10 3 0.046089 6.70124 6.73798 5.30923 0 0 1
177 10 3 0.046089 7.60044 5.19667 4.96559 0 0 1
178 10 3 0.033922 7.91699 7.52497 3.13335 0 0 1
179 10 3 0.033922 8.41839 5.75854 2.89806 0 0 1
180 10 3 0.033922 6.77045 6.18452 2.87826 0 0 1
181 11 1 -0.091211 -0.370668 11.3819 16.7522 0 0 0
182 11 1 -0.050311 -0.688337 12.3686 17.8697 0 0 0
183 11 2 -0.174311 -0.75371 11.6037 19.2125 0 0 0
184 11 2 -0.174311 -0.688314 12.2792 20.4117 0 0 0
185 11 1 -0.050311 -0.621336 13.8093 20.5843 0 0 0
186 11 1 -0.091211 -1.79798 14.4229 0.62303 0 0 1
187 11 3 0.033922 -0.295886 11.973 15.8348 0 0 0
188 11 3 0.033922 -1.22048 10.7011 16.6483 0 0 0
189 11 3 0.033922 0.551264 10.8245 16.9418 0 0 0
190 11 3 0.046089 0.118168 13.1045 17.9369 0 0 0
191 11 3 0.046089 -1.61022 12.9185 17.6591 0 0 0
192 11 4 0.121889 -0.567847 10.5362 19.151 0 0 0
193 11 4 0.121889 -0.588238 11.7749 0.500762 0 0 1
194 11 3 0.046089 -0.605638 14.2843 19.5991 0 0 0
195 11 3 0.046089 0.311321 14.1454 21.0468 0 0 0
196 11 3 0.033922 -2.75983 14.1533 21.044 0 0 0
197 11 3 0.033922 -1.78785 14.0086 1.63538 0 0 1
198 11 3 0.033922 -1.71424 15.5113 0.692735 0 0 1
199 12 1 -0.091211 4.92778 9.0777 10.0143 0 0 0
200 12 1 -0.050311 4.20052 8.32613 11.1388 0 0 0
201 12 2 -0.174311 2.87369 7.77642 10.7309 0 0 0
202 12 2 -0.174311 1.68349 8.50371 10.6578 0 0 0
203 12 1 -0.050311 1.44475 9.8744 11.1335 0 0 0
204 12 1 -0.091211 0.427686 9.86299 12.2453 0 0 0
205 12 3 0.033922 5.77589 9.63776 10.4189 0 0 0
206 12 3 0.033922 4.26099 9.84185 9.60439 0 0 0
207 12 3 0.033922 5.25136 8.41746 9.20441 0 0 0
208 12 3 0.046089 4.8425 7.51854 11.5024 0 0 0
209 12 3 0.046089 4.04252 8.96851 12.01 0 0 0
210 12 4 0.121889 2.80213 6.73398 10.4375 0 0 0
211 12 4 0.121889 0.809565 7.96622 10.3037 0 0 0
212 12 3 0.046089 1.08813 10.5632 10.3621 0 0 0
213 12 3 0.046089 2.37746 10.3289 11.48 0 0 0
214 12 3 0.033922 -0.373404 9.31407 11.7417 0 0 0
215 12 3 0.033922 0.770864 9.25021 13.0839 0 0 0
216 12 3 0.033922 0.0517529 10.8413 12.5584 0 0 0
217 13 1 -0.091211 -2.16808 15.4077 7.25054 0 0 1
218 13 1 -0.050311 -2.21321 15.9514 8.71444 0 0 1
219 13 2 -0.174311 -2.56028 14.8043 9.65554 0 0 1
220 13 2 -0.174311 -1.68207 14.2648 10.5606 0 0 1
221 13 1 -0.050311 -0.268814 14.7946 10.772 0 0 1
222 13 1 -0.091211 0.655184 13.6742 11.4006 0 0 1
223 13 3 0.033922 -1.90784 16.252 6.60552 0 0 1
224 13 3 0.033922 -3.05824 14.8656 6.91836 0 0 1
225 13 3 0.033922 -1.28117 14.7708 7.18527 0 0 1
226 13 3 0.046089 -1.27412 16.4445 8.98197 0 0 1
227 13 3 0.046089 -3.00982 16.6983 8.77882 0 0 1
228 13 4 0.121889 -3.59161 14.4667 9.67658 0 0 1
229 13 4 0.121889 -2.09239 13.4679 11.1726 0 0 1
230 13 3 0.046089 -0.157538 15.649 11.446 0 0 1
231 13 3 0.046089 0.156161 15.2097 9.85351 0 0 1
232 13 3 0.033922 0.875168 12.8673 10.6955 0 0 1
233 13 3 0.033922 1.58594 14.1754 11.6819 0 0 1
234 13 3 0.033922 0.168621 13.3009 12.3065 0 0 1
235 14 1 -0.091211 13.1386 8.70879 6.58321 0 0 0
236 14 1 -0.050311 13.7889 8.33328 5.24658 0 0 0
237 14 2 -0.174311 13.0068 7.36593 4.39023 0 0 0
238 14 2 -0.174311 13.4975 6.39762 3.41757 0 0 0
239 14 1 -0.050311 14.9604 6.22764 3.04241 0 0 0
240 14 1 -0.091211 15.5707 5.25313 4.04469 0 0 0
241 14 3 0.033922 12.4815 7.8922 6.89614 0 0 0
242 14 3 0.033922 12.4711 9.56538 6.45171 0 0 0
243 14 3 0.033922 13.8825 8.9028 7.36147 0 0 0
244 14 3 0.046089 13.977 9.30234 4.77533 0 0 0
245 14 3 0.046089 14.8125 7.99823 5.43779 0 0 0
246 14 4 0.121889 11.9231 7.41224 4.42847 0 0 0
247 14 4 0.121889 12.7093 5.76168 3.02735 0 0 0
248 14 3 0.046089 15.4626 7.19662 2.96941 0 0 0
249 14 3 0.046089 14.9975 5.79559 2.03813 0 0 0
250 14 3 0.033922 15.6486 5.73476 5.02376 0 0 0
251 14 3 0.033922 14.9248 4.3711 4.08162 0 0 0
252 14 3 0.033922 16.5464 4.78146 3.89574 0 0 0
253 15 1 -0.091211 2.54711 2.63559 2.81112 0 1 1
254 15 1 -0.050311 2.512 3.9146 1.89899 0 1 1
255 15 2 -0.174311 1.3802 4.79213 2.32029 0 1 1
256 15 2 -0.174311 0.839652 5.79286 1.55338 0 1 1
257 15 1 -0.050311 1.37104 6.21766 0.202022 0 1 1
258 15 1 -0.091211 0.966728 7.66323 20.9613 0 1 0
259 15 3 0.033922 2.29521 2.8419 3.85546 0 1 1
260 15 3 0.033922 3.5393 2.17651 2.77317 0 1 1
261 15 3 0.033922 1.84129 1.87145 2.47274 0 1 1
262 15 3 0.046089 3.42638 4.48348 2.0911 0 1 1
263 15 3 0.046089 2.43743 3.58902 0.857323 0 1 1
264 15 4 0.121889 0.860332 4.52827 3.2358 0 1 1
265 15 4 0.121889 -0.0489173 6.34032 1.85128 0 1 1
266 15 3 0.046089 0.77269 5.63223 20.3647 0 1 0
267 15 3 0.046089 2.42961 6.01304 20.8839 0 1 0
268 15 3 0.033922 -0.0982925 7.89328 0.191807 0 1 1
269 15 3 0.033922 1.5672 8.35743 0.689562 0 1 1
270 15 3 0.033922 1.13135 7.89527 19.9051 0 1 0
271 16 1 -0.091211 12.2535 4.60561 7.56093 0 1 0
272 16 1 -0.050311 13.1709 3.39482 7.83837 0 1 0
273 16 2 -0.174311 12.4938 2.19351 7.11222 0 1 0
274 16 2 -0.174311 11.752 1.19626 7.72705 0 1 0
275 16 1 -0.050311 11.3903 1.35721 9.20345 0 1 0
276 16 1 -0.091211 12.508 0.845443 10.1254 0 1 0
277 16 3 0.033922 11.3775 4.63792 8.2153 0 1 0
278 16 3 0.033922 11.9266 4.67189 6.51912 0 1 0
279 16 3 0.033922 12.7701 5.52608 7.84791 0 1 0
280 16 3 0.046089 14.2041 3.53745 7.5084 0 1 0
281 16 3 0.046089 13.2161 3.24817 8.92147 0 1 0
282 16 4 0.121889 12.8607 1.88775 6.13759 0 1 0
283 16 4 0.121889 11.5403 20.482 7.17934 0 0 0
284 16 3 0.046089 10.4942 0.768034 9.41916 0 1 0
285 16 3 0.046089 11.1875 2.3646 9.57839 0 1 0
286 16 3 0.033922 12.6246 19.96 10.2143 0 0 0
287 16 3 0.033922 13.4521 1.26761 9.76887 0 1 0
288 16 3 0.033922 12.3986 1.2541 11.1342 0 1 0
289 17 1 -0.091211 7.73176 13.7819 10.0288 0 0 0
290 17 1 -0.050311 8.37218 12.4208 10.4585 0 0 0
291 17 2 -0.174311 9.74299 12.5144 11.0391 0 0 0
292 17 2 -0.174311 10.7776 11.677 10.9592 0 0 0
293 17 1 -0.050311 10.7374 10.2555 10.411 0 0 0
294 17 1 -0.091211 11.3616 10.0916 8.99814 0 0 0
295 17 3 0.033922 6.73108 13.7084 9.59303 0 0 0
296 17 3 0.033922 8.35814 14.1369 9.2053 0 0 0
297 17 3 0.033922 7.69506 14.4852 10.8658 0 0 0
298 17 3 0.046089 7.65775 11.9259 11.1228 0 0 0
299 17 3 0.046089 8.36135 11.7815 9.57094 0 0 0
300 17 4 0.121889 10.045 13.4632 11.471 0 0 0
301 17 4 0.121889 11.6804 12.0581 11.4259 0 0 0
302 17 3 0.046089 9.76303 9.76971 10.3049 0 0 0
303 17 3 0.046089 11.2962 9.6861 11.1594 0 0 0
304 17 3 0.033922 10.8267 10.7257 8.28514 0 0 0
305 17 3 0.033922 12.4128 10.3932 9.02465 0 0 0
306 17 3 0.033922 11.3544 9.05807 8.63998 0 0 0
307 18 1 -0.091211 34.7699 7.88451 15.8209 -1 0 1
308 18 1 -0.050311 35.0625 8.10752 14.3523 -1 0 1
309 18 2 -0.174311 36.5019 8.02011 14.0276 -1 0 1
310 18 2 -0.174311 36.9861 6.96885 13.3025 -1 0 1
311 18 1 -0.050311 36.4328 5.60648 12.7853 -1 0 1
312 18 1 -0.091211 36.3559 5.70658 11.2625 -1 0 1
313 18 3 0.033922 33.7644 8.18597 16.1288 -1 0 1
314 18 3 0.033922 35.4327 8.41914 16.5075 -1 0 1
315 18 3 0.033922 34.841 6.8133 16.0306 -1 0 1
316 18 3 0.046089 34.4491 7.41387 13.7699 -1 0 1
317 18 3 0.046089 34.8043 9.16037 14.2062 -1 0 1
318 18 4 0.121889 37.1218 8.88487 14.2419 -1 0 1
319 18 4 0.121889 37.994 7.11435 12.9269 -1 0 1
320 18 3 0.046089 35.4484 5.34585 13.1848 -1 0 1
321 18 3 0.046089 37.192 4.88471 13.1006 -1 0 1
322 18 3 0.033922 35.8129 6.60536 10.956 -1 0 1
323 18 3 0.033922 37.3469 5.9011 10.8422 -1 0 1
324 18 3 0.033922 35.9516 4.76075 10.8903 -1 0 1
325 19 1 -0.091211 6.89208 9.47785 21.0272 0 0 -1
326 19 1 -0.050311 7.91969 10.173 20.202 0 0 -1
327 19 2 -0.174311 8.68009 9.25779 19.37 0 0 -1
328 19 2 -0.174311 9.49927 9.65802 18.3503 0 0 -1
329 19 1 -0.050311 9.76777 11.093 17.9597 0 0 -1
330 19 1 -0.091211 11.0154 11.8417 18.5446 0 0 -1
331 19 3 0.033922 6.31298 10.2653 0.651455 0 0 0
332 19 3 0.033922 7.33196 8.92463 0.995269 0 0 0
333 19 3 0.033922 6.18336 8.88592 20.4407 0 0 -1
334 19 3 0.046089 7.37069 10.8915 19.5864 0 0 -1
335 19 3 0.046089 8.51403 10.7484 20.9177 0 0 -1
336 19 4 0.121889 8.56723 8.19597 19.5641 0 0 -1
337 19 4 0.121889 10.0328 8.92864 17.7491 0 0 -1
338 19 3 0.046089 8.89466 11.7422 18.073 0 0 -1
339 19 3 0.046089 9.96747 11.0161 16.8869 0 0 -1
340 19 3 0.033922 11.9205 11.3223 18.2165 0 0 -1
341 19 3 0.033922 11.0751 12.8909 18.2412 0 0 -1
342 19 3 0.033922 10.9459 11.7523 19.6327 0 0 -1
343 20 1 -0.091211 12.5998 18.1444 4.87582 0 -1 0
344 20 1 -0.050311 13.8722 18.9675 4.73393 0 -1 0
345 20 2 -0.174311 13.4948 20.1025 3.96283 0 -1 0
346 20 2 -0.174311 14.2875 20.8676 3.20506 0 -1 0
347 20 1 -0.050311 15.6954 20.5834 2.82347 0 -1 0
348 20 1 -0.091211 16.4095 1.74988 2.85781 0 0 0
349 20 3 0.033922 12.2857 17.7912 3.88931 0 -1 0
350 20 3 0.033922 11.7899 18.646 5.41349 0 -1 0
351 20 3 0.033922 12.9244 17.2973 5.48711 0 -1 0
352 20 3 0.046089 14.1431 19.4035 5.69993 0 -1 0
353 20 3 0.046089 14.7377 18.4414 4.32074 0 -1 0
354 20 4 0.121889 12.4855 20.4935 4.04357 0 -1 0
355 20 4 0.121889 13.8657 1.52977 2.69585 0 0 0
356 20 3 0.046089 15.7948 20.151 1.82359 0 -1 0
357 20 3 0.046089 16.0987 19.9484 3.61765 0 -1 0
358 20 3 0.033922 16.1212 2.29634 1.95511 0 0 0
359 20 3 0.033922 16.1791 2.13809 3.85422 0 0 0
360 20 3 0.033922 17.4965 1.63811 2.80544 0 0 0
361 21 1 -0.091211 43.4755 2.4994 1.41122 -1 0 1
362 21 1 -0.050311 -4.36233 2.4904 2.56591 0 0 1
363 21 2 -0.174311 -2.95628 2.78104 2.09538 0 0 1
364 21 2 -0.174311 -1.73726 2.51521 2.72008 0 0 1
365 21 1 -0.050311 -1.72159 1.66508 3.94071 0 0 1
366 21 1 -0.091211 -1.94492 20.3981 3.42043 0 -1 1
367 21 3 0.033922 43.5526 3.49274 0.959711 -1 0 1
368 21 3 0.033922 42.4341 2.42004 1.73667 -1 0 1
369 21 3 0.033922 43.6608 1.77317 0.614449 -1 0 1
370 21 3 0.046089 -4.63334 3.26028 3.2942 0 0 1
371 21 3 0.046089 -4.44825 1.55874 3.13263 0 0 1
372 21 4 0.121889 -2.8225 3.50143 1.29469 0 0 1
373 21 4 0.121889 -0.824618 2.85653 2.24194 0 0 1
374 21 3 0.046089 -2.50525 1.98228 4.63491 0 0 1
375 21 3 0.046089 -0.715351 1.73035 4.36484 0 0 1
376 21 3 0.033922 -0.989896 20.1358 2.95591 0 -1 1
377 21 3 0.033922 -2.2493 19.7524 4.24925 0 -1 1
378 21 3 0.033922 -2.78945 20.3332 2.72818 0 -1 1
379 22 1 -0.091211 9.12827 15.2872 19.6877 0 -1 0
380 22 1 -0.050311 8.21768 15.6059 18.4972 0 -1 0
381 22 2 -0.174311 9.15462 15.9994 17.3882 0 -1 0
382 22 2 -0.174311 8.94502 15.7018 16.0868 0 -1 0
383 22 1 -0.050311 7.9452 14.7125 15.4295 0 -1 0
384 22 1 -0.091211 8.62437 13.8602 14.3939 0 -1 0
385 22 3 0.033922 8.59954 14.9006 20.5638 0 -1 0
386 22 3 0.033922 9.542 16.1863 20.1535 0 -1 0
387 22 3 0.033922 9.93676 14.6245 19.3655 0 -1 0
388 22 3 0.046089 7.59429 14.7318 18.2877 0 -1 0
389 22 3 0.046089 7.52348 16.4206 18.7229 0 -1 0
390 22 4 0.121889 10.0303 16.5865 17.6462 0 -1 0
391 22 4 0.121889 9.55237 16.2294 15.3583 0 -1 0
392 22 3 0.046089 7.10295 15.2558 14.9912 0 -1 0
393 22 3 0.046089 7.57755 14.0756 16.2393 0 -1 0
394 22 3 0.033922 9.54646 13.4531 14.8189 0 -1 0
395 22 3 0.033922 8.02216 12.9676 14.2014 0 -1 0
396 22 3 0.033922 8.73061 14.5118 13.5217 0 -1 0
397 23 1 -0.091211 3.22856 13.7683 3.05895 0 0 0
398 23 1 -0.050311 2.12897 12.7429 3.29553 0 0 0
399 23 2 -0.174311 0.936722 13.3265 4.06614 0 0 0
400 23 2 -0.174311 -0.210079 12.5571 4.3623 0 0 0
401 23 1 -0.050311 -0.236139 11.1082 4.0713 0 0 0
402 23 1 -0.091211 -1.69409 10.8024 3.95554 0 0 0
403 23 3 0.033922 3.52566 14.2612 3.98921 0 0 0
404 23 3 0.033922 2.7617 14.4959 2.38869 0 0 0
405 23 3 0.033922 4.04751 13.2514 2.55024 0 0 0
406 23 3 0.046089 1.72087 12.2951 2.38473 0 0 0
407 23 3 0.046089 2.5171 11.9283 3.91394 0 0 0
408 23 4 0.121889 1.02987 14.3826 4.29858 0 0 0
409 23 4 0.121889 -1.04751 13.0511 4.84462 0 0 0
410 23 3 0.046089 0.176912 10.5432 4.91197 0 0 0
411 23 3 0.046089 0.385097 10.8445 3.2104 0 0 0
412 23 3 0.033922 -1.82119 9.71813 4.02415 0 0 0
413 23 3 0.033922 -2.29476 11.2089 4.77444 0 0 0
414 23 3 0.033922 -1.98129 11.1701 2.9661 0 0 0
415 24 1 -0.091211 1.28442 17.9996 3.26788 0 0 0
416 24 1 -0.050311 2.8202 18.1803 3.55294 0 0 0
417 24 2 -0.174311 3.70565 18.3516 2.40037 0 0 0
418 24 2 -0.174311 5.01012 17.9568 2.43733 0 0 0
419 24 1 -0.050311 5.73313 17.4638 3.65775 0 0 0
420 24 1 -0.091211 7.08775 18.196 3.76687 0 0 0
421 24 3 0.033922 0.823996 18.8129 2.69946 0 0 0
422 24 3 0.033922 0.635908 17.8189 4.13012 0 0 0
423 24 3 0.033922 1.24412 17.1526 2.57684 0 0 0
424 24 3 0.046089 2.99747 18.9743 4.28428 0 0 0
425 24 3 0.046089 3.15613 17.2647 4.0483 0 0 0
426 24 4 0.121889 3.34007 18.6823 1.43341 0 0 0
427 24 4 0.121889 5.52845 17.9734 1.48386 0 0 0
428 24 3 0.046089 5.88273 16.3847 3.55973 0 0 0
429 24 3 0.046089 5.23045 17.5943 4.62053 0 0 0
430 24 3 0.033922 7.65514 18.2491 2.83311 0 0 0
431 24 3 0.033922 6.99163 19.2324 4.10308 0 0 0
432 24 3 0.033922 7.66379 17.7707 4.59387 0 0 0
433 25 1 -0.091211 -0.423123 3.22942 18.1823 0 0 0
434 25 1 -0.050311 -0.764739 3.13353 19.7681 0 0 0
435 25 2 -0.174311 -1.64091 1.89313 20.0534 0 0 0
436 25 2 -0.174311 -1.02177 0.710923 20.386 0 0 0
437 25 1 -0.050311 0.413636 20.6893 20.6909 0 -1 0
438 25 1 -0.091211 0.587137 19.1835 20.4633 0 -1 0
439 25 3 0.033922 0.617708 3.56448 18.1497 0 0 0
440 25 3 0.033922 -1.06412 3.91734 17.6233 0 0 0
441 25 3 0.033922 -0.608274 2.24322 17.7468 0 0 0
442 25 3 0.046089 0.0726063 3.1955 20.4693 0 0 0
443 25 3 0.046089 -1.20144 4.10555 20.0151 0 0 0
444 25 4 0.121889 -2.72545 1.9259 20.0262 0 0 0
445 25 4 0.121889 -1.6832 20.0562 20.4972 0 -1 0
446 25 3 0.046089 0.753805 0.948796 0.757424 0 0 1
447 25 3 0.046089 0.957829 1.09681 19.9608 0 0 0
448 25 3 0.033922 0.188695 18.8987 19.4852 0 -1 0
449 25 3 0.033922 1.62793 18.855 20.5374 0 -1 0
450 25 3 0.033922 0.0866905 18.7675 0.475701 0 -1 1
451 26 1 -0.091211 -3.9882 14.3526 4.05228 0 -1 1
452 26 1 -0.050311 43.3532 14.8244 3.63514 -1 -1 1
453 26 2 -0.174311 42.3602 13.735 3.95109 -1 -1 1
454 26 2 -0.174311 41.0677 13.8134 3.59839 -1 -1 1
455 26 1 -0.050311 40.3994 14.9376 2.8656 -1 -1 1
456 26 1 -0.091211 39.0523 15.2035 3.51947 -1 -1 1
457 26 3 0.033922 -3.28842 15.1736 4.23381 0 -1 1
458 26 3 0.033922 -3.63714 13.7392 3.2174 0 -1 1
459 26 3 0.033922 -4.04624 13.6857 4.91741 0 -1 1
460 26 3 0.046089 43.1546 15.7255 4.22266 -1 -1 1
461 26 3 0.046089 43.4219 15.0628 2.56972 -1 -1 1
462 26 4 0.121889 42.6842 12.7913 4.3783 -1 -1 1
463 26 4 0.121889 40.5685 12.8827 3.84856 -1 -1 1
464 26 3 0.046089 40.1596 14.7339 1.8179 -1 -1 1
465 26 3 0.046089 41.0601 15.8066 2.93514 -1 -1 1
466 26 3 0.033922 38.4564 16.0048 3.07302 -1 -1 1
467 26 3 0.033922 38.401 14.3313 3.41156 -1 -1 1
468 26 3 0.033922 39.2494 15.5077 4.55157 -1 -1 1
469 27 1 -0.091211 16.4817 17.946 17.4536 0 0 -1
470 27 1 -0.050311 16.88 16.8927 18.4904 0 0 -1
471 27 2 -0.174311 15.9952 15.6463 18.4819 0 0 -1
472 27 2 -0.174311 16.1382 14.6784 19.4605 0 0 -1
473 27 1 -0.050311 17.1635 14.6776 20.5373 0 0 -1
474 27 1 -0.091211 17.7381 13.26 20.6991 0 0 -1
475 27 3 0.033922 17.2985 18.6111 17.1585 0 0 -1
476 27 3 0.033922 15.681 18.5815 17.8431 0 0 -1
477 27 3 0.033922 16.2361 17.3321 16.5822 0 0 -1
478 27 3 0.046089 17.9331 16.6499 18.3207 0 0 -1
479 27 3 0.046089 16.7714 17.3695 19.4689 0 0 -1
480 27 4 0.121889 15.2661 15.7131 17.6806 0 0 -1
481 27 4 0.121889 15.5366 13.7751 19.463 0 0 -1
482 27 3 0.046089 16.6303 14.9916 0.572572 0 0 0
483 27 3 0.046089 17.971 15.3889 20.3412 0 0 -1
484 27 3 0.033922 18.4599 13.0658 19.9004 0 0 -1
485 27 3 0.033922 18.1024 13.1774 0.860456 0 0 0
486 27 3 0.033922 16.9592 12.4975 20.607 0 0 -1
487 28 1 -0.091211 10.7648 19.7491 1.0823 0 -1 0
488 28 1 -0.050311 11.1968 20.0946 20.4841 0 -1 -1
489 28 2 -0.174311 12.7431 20.2288 20.3716 0 -1 -1
490 28 2 -0.174311 13.4838 19.2535 19.7844 0 -1 -1
491 28 1 -0.050311 12.9929 18.0051 19.1547 0 -1 -1
492 28 1 -0.091211 13.0068 16.8737 20.2007 0 -1 -1
493 28 3 0.033922 9.68526 19.9166 1.13905 0 -1 0
494 28 3 0.033922 11.3058 20.4624 1.71099 0 -1 0
495 28 3 0.033922 10.946 18.7389 1.46065 0 -1 0
496 28 3 0.046089 10.8527 19.2521 19.8771 0 -1 -1
497 28 3 0.046089 10.7202 0.827814 20.1659 0 0 -1
498 28 4 0.121889 13.1877 0.891478 20.86 0 0 -1
499 28 4 0.121889 14.5457 19.4418 19.6619 0 -1 -1
500 28 3 0.046089 13.6042 17.8167 18.2673 0 -1 -1
501 28 3 0.046089 11.9969 18.0834 18.7092 0 -1 -1
502 28 3 0.033922 12.5524 15.963 19.8 0 -1 -1
503 28 3 0.033922 14.0397 16.6252 20.4617 0 -1 -1
504 28 3 0.033922 12.4807 17.2159 0.229805 0 -1 0
505 29 1 -0.091211 4.85059 8.5871 2.76873 0 0 0
506 29 1 -0.050311 4.21162 7.413 3.51047 0 0 0
507 29 2 -0.174311 4.17821 7.64194 4.95835 0 0 0
508 29 2 -0.174311 3.28631 7.07282 5.83157 0 0 0
509 29 1 -0.050311 2.38662 5.98459 5.41297 0 0 0
510 29 1 -0.091211 1.24527 5.85777 6.47782 0 0 0
511 29 3 0.033922 5.90903 8.58705 3.04507 0 0 0
512 29 3 0.033922 4.33585 9.53705 2.93955 0 0 0
513 29 3 0.033922 4.79178 8.38515 1.69523 0 0 0
514 29 3 0.046089 3.16648 7.26976 3.22094 0 0 0
515 29 3 0.046089 4.72849 6.47468 3.28926 0 0 0
516 29 4 0.121889 4.76554 8.49175 5.29124 0 0 0
517 29 4 0.121889 3.19085 7.48246 6.83212 0 0 0
518 29 3 0.046089 2.98232 5.07013 5.33915 0 0 0
519 29 3 0.046089 1.84231 6.16043 4.48051 0 0 0
520 29 3 0.033922 1.40815 5.40023 7.45801 0 0 0
521 29 3 0.033922 0.899196 6.88425 6.62974 0 0 0
522 29 3 0.033922 0.40393 5.38383 5.96386 0 0 0
523 30 1 -0.091211 0.265054 18.9079 11.041 0 0 1
524 30 1 -0.050311 1.37632 19.112 10.0822 0 0 1
525 30 2 -0.174311 0.863337 19.1398 8.6827 0 0 1
526 30 2 -0.174311 1.17388 20.1372 7.80854 0 0 1
527 30 1 -0.050311 2.01159 1.11768 8.22064 0 1 1
528 30 1 -0.091211 2.36643 2.05126 7.04279 0 1 1
529 30 3 0.033922 -0.377942 18.0495 10.8258 0 0 1
530 30 3 0.033922 -0.363186 19.7984 10.9461 0 0 1
531 30 3 0.033922 0.529796 18.7629 12.0924 0 0 1
532 30 3 0.046089 1.9601 19.9815 10.3978 0 0 1
533 30 3 0.046089 2.08574 18.2859 10.1865 0 0 1
534 30 4 0.121889 0.365665 18.2372 8.34265 0 0 1
535 30 4 0.121889 0.671631 20.065 6.84907 0 0 1
536 30 3 0.046089 2.97548 0.787993 8.61923 0 1 1
537 30 3 0.046089 1.49633 1.66596 9.0147 0 1 1
538 30 3 0.033922 3.20104 2.69095 7.34417 0 1 1
539 30 3 0.033922 2.69375 1.56412 6.11965 0 1 1
540 30 3 0.033922 1.50534 2.66622 6.76537 0 1 1
541 31 1 -0.091211 22.3734 20.6902 20.5523 0 0 0
542 31 1 -0.050311 22.63 19.1986 20.4056 0 0 0
543 31 2 -0.174311 21.8961 18.7899 19.2136 0 0 0
544 31 2 -0.174311 21.0446 17.6451 19.0951 0 0 0
545 31 1 -0.050311 20.8754 16.585 20.1634 0 0 0
546 31 1 -0.091211 20.7193 15.1837 19.5262 0 0 0
547 31 3 0.033922 22.4736 0.708168 0.753075 0 1 1
548 31 3 0.033922 21.3343 0.704972 20.2852 0 1 0
549 31 3 0.033922 23.1277 1.06441 20.005 0 1 0
550 31 3 0.046089 23.6838 18.9117 20.3429 0 0 0
551 31 3 0.046089 22.263 18.6742 0.425762 0 0 1
552 31 4 0.121889 21.8421 19.45 18.3538 0 0 0
553 31 4 0.121889 20.5764 17.5533 18.1202 0 0 0
554 31 3 0.046089 20.0317 16.8322 20.8142 0 0 0
555 31 3 0.046089 21.8009 16.4813 20.7374 0 0 0
556 31 3 0.033922 20.086 15.2829 18.6397 0 0 0
557 31 3 0.033922 21.7167 14.9581 19.1377 0 0 0
558 31 3 0.033922 20.3734 14.4135 20.2218 0 0 0
559 32 1 -0.091211 17.5134 1.70527 19.4427 0 1 -1
560 32 1 -0.050311 16.0408 1.9548 19.8078 0 1 -1
561 32 2 -0.174311 15.7906 3.44032 19.8714 0 1 -1
562 32 2 -0.174311 15.0752 4.13871 18.9226 0 1 -1
563 32 1 -0.050311 14.355 3.61359 17.6998 0 1 -1
564 32 1 -0.091211 13.5881 4.75267 17.0287 0 1 -1
565 32 3 0.033922 17.7407 20.8407 19.564 0 0 -1
566 32 3 0.033922 18.1705 2.23526 20.1384 0 1 -1
567 32 3 0.033922 17.8095 1.8929 18.4065 0 1 -1
568 32 3 0.046089 15.4046 1.54274 19.0191 0 1 -1
569 32 3 0.046089 15.7363 1.53592 20.7714 0 1 -1
570 32 4 0.121889 16.2163 4.00062 20.6978 0 1 -1
571 32 4 0.121889 15.0318 5.2193 19.0139 0 1 -1
572 32 3 0.046089 13.5667 2.87655 17.8783 0 1 -1
573 32 3 0.046089 15.1487 3.15857 17.1001 0 1 -1
574 32 3 0.033922 13.1054 4.34209 16.137 0 1 -1
575 32 3 0.033922 12.7916 5.07167 17.7072 0 1 -1
576 32 3 0.033922 14.1825 5.59127 16.6545 0 1 -1
577 33 1 -0.091211 14.9478 12.0516 8.24841 0 0 0
578 33 1 -0.050311 15.2139 11.3136 9.56217 0 0 0
579 33 2 -0.174311 16.2638 11.9972 10.4315 0 0 0
580 33 2 -0.174311 17.4025 11.4759 11.0409 0 0 0
581 33 1 -0.050311 17.7763 10.0075 11.1025 0 0 0
582 33 1 -0.091211 17.8528 9.58313 12.5399 0 0 0
583 33 3 0.033922 15.8498 12.1002 7.63152 0 0 0
584 33 3 0.033922 14.6524 13.0907 8.42021 0 0 0
585 33 3 0.033922 14.189 11.5831 7.61475 0 0 0
586 33 3 0.046089 14.3064 11.259 10.1704 0 0 0
587 33 3 0.046089 15.439 10.2659 9.34277 0 0 0
588 33 4 0.121889 16.2048 13.0802 10.4682 0 0 0
589 33 4 0.121889 17.9936 12.2224 11.5617 0 0 0
590 33 3 0.046089 18.775 9.88988 10.6717 0 0 0
591 33 3 0.046089 17.0905 9.32338 10.5944 0 0 0
592 33 3 0.033922 16.8912 9.58468 13.0614 0 0 0
593 33 3 0.033922 18.4334 8.65709 12.5833 0 0 0
594 33 3 0.033922 18.4383 10.3462 13.0611 0 0 0
595 34 1 -0.091211 11.0761 15.8733 8.49788 0 0 0
596 34 1 -0.050311 12.5001 16.3031 8.84263 0 0 0
597 34 2 -0.174311 13.0939 15.3611 9.8445 0 0 0
598 34 2 -0.174311 14.1641 15.5409 10.593 0 0 0
599 34 1 -0.050311 15.2279 16.5081 10.2714 0 0 0
600 34 1 -0.091211 15.0938 17.6572 11.2685 0 0 0
601 34 3 0.033922 10.4256 16.0578 9.35782 0 0 0
602 34 3 0.033922 11.0384 14.875 8.05243 0 0 0
603 34 3 0.033922 10.8451 16.5663 7.68359 0 0 0
604 34 3 0.046089 13.0864 16.4085 7.92515 0 0 0
605 34 3 0.046089 12.4461 17.2865 9.31856 0 0 0
606 34 4 0.121889 12.4122 14.6369 10.2791 0 0 0
607 34 4 0.121889 14.447 14.85 11.3808 0 0 0
608 34 3 0.046089 15.0626 16.8382 9.24163 0 0 0
609 34 3 0.046089 16.2311 16.1046 10.4367 0 0 0
610 34 3 0.033922 14.109 18.1217 11.1623 0 0 0
611 34 3 0.033922 15.069 17.3071 12.3046 0 0 0
612 34 3 0.033922 15.8503 18.4305 11.1064 0 0 0
613 35 1 -0.091211 38.6844 15.9112 19.6725 -1 0 0
614 35 1 -0.050311 38.0713 14.6409 19.2074 -1 0 0