ITEM: TIMESTEP
20300
ITEM: NUMBER OF ATOMS
1800
ITEM: BOX BOUNDS pp pp pp
-5.9471359193694795e-01 3.9402729091936791e+01
3.3070716873711170e-01 2.1277948331263154e+01
-2.3355531947728654e+00 2.3589286694772959e+01
ITEM: ATOMS id mol type q x y z ix iy iz
1 1 1 -0.091211 6.66438 16.9832 5.10771 0 -1 0
2 1 1 -0.050311 7.48243 18.1009 4.54214 0 -1 0
3 1 2 -0.174311 8.37575 18.6383 5.59417 0 -1 0
4 1 2 -0.174311 8.18321 19.8498 6.20415 0 -1 0
5 1 1 -0.050311 7.20497 20.9631 5.76432 0 -1 0
6 1 1 -0.091211 7.4658 1.40464 6.35475 0 0 0
7 1 3 0.033922 7.3506 16.142 5.24222 0 -1 0
8 1 3 0.033922 5.85489 16.8019 4.39468 0 -1 0
9 1 3 0.033922 6.25899 17.4512 6.00947 0 -1 0
10 1 3 0.046089 8.05181 17.7264 3.68648 0 -1 0
11 1 3 0.046089 6.88608 18.8649 4.035 0 -1 0
12 1 4 0.121889 9.22229 18.0483 5.93059 0 -1 0
13 1 4 0.121889 8.87208 20.1198 6.99822 0 -1 0
14 1 3 0.046089 6.16331 20.7141 5.98675 0 -1 0
15 1 3 0.046089 7.28668 20.948 4.67358 0 -1 0
16 1 3 0.033922 6.91857 2.17246 5.8002 0 0 0
17 1 3 0.033922 7.18373 1.32758 7.40885 0 0 0
18 1 3 0.033922 8.52253 1.66476 6.24442 0 0 0
19 2 1 -0.091211 5.23363 2.86274 17.8631 0 0 0
20 2 1 -0.050311 4.88616 3.91192 18.8509 0 0 0
21 2 2 -0.174311 6.06241 4.25421 19.712 0 0 0
22 2 2 -0.174311 6.88929 5.36086 19.565 0 0 0
23 2 1 -0.050311 6.6784 6.46728 18.5712 0 0 0
24 2 1 -0.091211 7.94254 7.26396 18.129 0 0 0
25 2 3 0.033922 5.48283 1.97258 18.448 0 0 0
26 2 3 0.033922 6.12563 3.13348 17.2907 0 0 0
27 2 3 0.033922 4.37301 2.76998 17.1943 0 0 0
28 2 3 0.046089 4.50119 4.76655 18.287 0 0 0
29 2 3 0.046089 4.18177 3.51849 19.5895 0 0 0
30 2 4 0.121889 6.24737 3.6691 20.6073 0 0 0
31 2 4 0.121889 7.73954 5.4503 20.2336 0 0 0
32 2 3 0.046089 6.02766 7.16052 19.112 0 0 0
33 2 3 0.046089 6.22998 5.91217 17.7421 0 0 0
34 2 3 0.033922 8.58552 6.5801 17.5673 0 0 0
35 2 3 0.033922 7.71373 8.10925 17.4734 0 0 0
36 2 3 0.033922 8.42639 7.64117 19.0346 0 0 0
37 3 1 -0.091211 1.18132 6.589 7.5756 0 0 0
38 3 1 -0.050311 1.49604 8.10351 7.3956 0 0 0
39 3 2 -0.174311 2.04417 8.68261 8.69771 0 0 0
40 3 2 -0.174311 3.42604 8.71514 9.01785 0 0 0
41 3 1 -0.050311 4.56105 8.44212 8.19419 0 0 0
42 3 1 -0.091211 5.81997 8.87259 8.96195 0 0 0
43 3 3 0.033922 1.93829 6.13621 8.22255 0 0 0
44 3 3 0.033922 1.19505 6.11307 6.59077 0 0 0
45 3 3 0.033922 0.176824 6.46821 7.99145 0 0 0
46 3 3 0.046089 2.2638 8.22265 6.62559 0 0 0
47 3 3 0.046089 0.620758 8.62463 6.99704 0 0 0
48 3 4 0.121889 1.37158 8.87588 9.52731 0 0 0
49 3 4 0.121889 3.50882 9.06592 10.0416 0 0 0
50 3 3 0.046089 4.40725 8.97981 7.25407 0 0 0
51 3 3 0.046089 4.67316 7.38086 7.95403 0 0 0
52 3 3 0.033922 6.67517 8.61452 8.3306 0 0 0
53 3 3 0.033922 5.84094 9.96079 9.071 0 0 0
54 3 3 0.033922 5.8917 8.30393 9.89365 0 0 0
55 4 1 -0.091211 2.79384 4.56822 4.93217 0 0 0
56 4 1 -0.050311 3.91533 3.91467 4.16494 0 0 0
57 4 2 -0.174311 3.49666 2.96637 3.07179 0 0 0
58 4 2 -0.174311 4.45297 2.41177 2.2333 0 0 0
59 4 1 -0.050311 5.9257 2.59234 2.43222 0 0 0
60 4 1 -0.091211 6.66358 2.10723 1.18722 0 0 0
61 4 3 0.033922 1.99757 4.84722 4.23597 0 0 0
62 4 3 0.033922 3.12124 5.45611 5.48079 0 0 0
63 4 3 0.033922 2.3001 3.85062 5.59386 0 0 0
64 4 3 0.046089 4.36281 4.72801 3.58634 0 0 0
65 4 3 0.046089 4.71241 3.61248 4.85044 0 0 0
66 4 4 0.121889 2.43576 2.84588 2.87715 0 0 0
67 4 4 0.121889 3.98798 1.9836 1.35101 0 0 0
68 4 3 0.046089 6.33793 2.03388 3.27766 0 0 0
69 4 3 0.046089 6.15291 3.65004 2.59395 0 0 0
70 4 3 0.033922 7.7054 2.43751 1.14206 0 0 0
71 4 3 0.033922 6.64396 1.02114 1.05858 0 0 0
72 4 3 0.033922 6.19961 2.5081 0.281338 0 0 0
73 5 1 -0.091211 0.23545 2.01718 7.50502 0 0 0
74 5 1 -0.050311 -0.515335 3.06921 6.85774 0 0 0
75 5 2 -0.174311 38.4529 3.69863 7.78664 -1 0 0
76 5 2 -0.174311 37.4562 4.50407 7.38041 -1 0 0
77 5 1 -0.050311 37.2252 5.10974 5.94027 -1 0 0
78 5 1 -0.091211 36.2118 4.28355 5.25321 -1 0 0
79 5 3 0.033922 1.00116 2.42207 8.17309 0 0 0
80 5 3 0.033922 0.833087 1.56191 6.70995 0 0 0
81 5 3 0.033922 -0.255372 1.18861 8.02377 0 0 0
82 5 3 0.046089 0.145031 3.85275 6.47496 0 0 0
83 5 3 0.046089 38.9765 2.53631 6.04719 -1 0 0
84 5 4 0.121889 38.4427 3.3911 8.82747 -1 0 0
85 5 4 0.121889 36.8189 4.9586 8.13217 -1 0 0
86 5 3 0.046089 38.1508 5.10736 5.35729 -1 0 0
87 5 3 0.046089 36.7162 6.07331 6.03496 -1 0 0
88 5 3 0.033922 36.0789 4.643 4.22864 -1 0 0
89 5 3 0.033922 36.5537 3.25786 5.08711 -1 0 0
90 5 3 0.033922 35.2395 4.29261 5.75425 -1 0 0
91 6 1 -0.091211 13.5382 8.83019 22.7007 0 0 0
92 6 1 -0.050311 12.221 7.98326 22.8734 0 0 0
93 6 2 -0.174311 12.4813 6.59992 22.3705 0 0 0
94 6 2 -0.174311 12.197 6.07252 21.0966 0 0 0
95 6 1 -0.050311 11.7226 6.8963 19.8828 0 0 0
96 6 1 -0.091211 12.6139 6.60269 18.6948 0 0 0
97 6 3 0.033922 14.4378 8.39328 23.1438 0 0 0
98 6 3 0.033922 13.4042 9.86769 23.0203 0 0 0
99 6 3 0.033922 13.8215 8.88906 21.6457 0 0 0
100 6 3 0.046089 11.8543 7.99594 -2.02091 0 0 1
101 6 3 0.046089 11.3372 8.40699 22.3877 0 0 0
102 6 4 0.121889 12.9375 5.87517 23.0373 0 0 0
103 6 4 0.121889 12.44 5.01999 20.9915 0 0 0
104 6 3 0.046089 11.8021 7.94999 20.1655 0 0 0
105 6 3 0.046089 10.6973 6.60757 19.6342 0 0 0
106 6 3 0.033922 12.5587 7.32363 17.8739 0 0 0
107 6 3 0.033922 13.6294 6.5862 19.1009 0 0 0
108 6 3 0.033922 12.4038 5.6064 18.295 0 0 0
109 7 1 -0.091211 38.0501 15.2375 10.4318 -1 0 0
110 7 1 -0.050311 36.9809 14.4611 9.8272 -1 0 0
111 7 2 -0.174311 37.2107 12.9322 9.94588 -1 0 0
112 7 2 -0.174311 37.7763 12.2275 8.96225 -1 0 0
113 7 1 -0.050311 38.2147 12.7709 7.6159 -1 0 0
114 7 1 -0.091211 36.9024 12.802 6.8455 -1 0 0
115 7 3 0.033922 39.0113 15.028 9.95366 -1 0 0
116 7 3 0.033922 38.0293 15.0823 11.5144 -1 0 0
117 7 3 0.033922 37.8521 16.2983 10.2529 -1 0 0
118 7 3 0.046089 36.0144 14.6916 10.2847 -1 0 0
119 7 3 0.046089 36.9075 14.7153 8.76579 -1 0 0
120 7 4 0.121889 36.8903 12.4214 10.8483 -1 0 0
121 7 4 0.121889 37.9253 11.1669 9.13801 -1 0 0
122 7 3 0.046089 38.9631 12.1863 7.073 -1 0 0
123 7 3 0.046089 38.6371 13.7777 7.68186 -1 0 0
124 7 3 0.033922 37.1384 13.3097 5.90571 -1 0 0
125 7 3 0.033922 36.5465 11.7896 6.63394 -1 0 0
126 7 3 0.033922 36.1469 13.3745 7.39148 -1 0 0
127 8 1 -0.091211 -0.574288 8.46016 14.3157 0 0 0
128 8 1 -0.050311 0.872308 7.93913 14.5129 0 0 0
129 8 2 -0.174311 0.91647 6.48652 14.3514 0 0 0
130 8 2 -0.174311 0.858043 5.51224 15.2672 0 0 0
131 8 1 -0.050311 0.755504 5.77954 16.6955 0 0 0
132 8 1 -0.091211 0.738372 4.52027 17.4094 0 0 0
133 8 3 0.033922 39.1054 8.27309 13.2858 -1 0 0
134 8 3 0.033922 39.4379 9.54285 14.4709 -1 0 0
135 8 3 0.033922 38.6947 8.00929 14.9959 -1 0 0
136 8 3 0.046089 1.53909 8.35621 13.7526 0 0 0
137 8 3 0.046089 1.14073 8.18127 15.5453 0 0 0
138 8 4 0.121889 1.02535 6.09376 13.3454 0 0 0
139 8 4 0.121889 0.990051 4.49847 14.9029 0 0 0
140 8 3 0.046089 -0.208147 6.24622 16.9194 0 0 0
141 8 3 0.046089 1.5995 6.35855 17.0814 0 0 0
142 8 3 0.033922 0.569892 4.72335 18.471 0 0 0
143 8 3 0.033922 -0.0814591 3.84674 17.1434 0 0 0
144 8 3 0.033922 1.69479 4.03079 17.204 0 0 0
145 9 1 -0.091211 38.9797 3.77698 21.7695 -1 0 0
146 9 1 -0.050311 -0.26235 4.80326 22.4747 0 0 0
147 9 2 -0.174311 0.112275 6.04202 21.6624 0 0 0
148 9 2 -0.174311 -0.243783 7.32222 21.9381 0 0 0
149 9 1 -0.050311 38.829 7.87426 22.9492 -1 0 0
150 9 1 -0.091211 38.3484 9.30099 22.6238 -1 0 0
151 9 3 0.033922 38.3702 4.20497 20.9683 -1 0 0
152 9 3 0.033922 38.3915 3.17172 22.4655 -1 0 0
153 9 3 0.033922 39.6171 2.94712 21.4508 -1 0 0
154 9 3 0.046089 39.0914 5.09764 23.3088 -1 0 0
155 9 3 0.046089 0.729566 4.44535 22.7655 0 0 0
156 9 4 0.121889 0.696305 5.79186 20.7825 0 0 0
157 9 4 0.121889 0.180305 8.08685 21.2951 0 0 0
158 9 3 0.046089 39.2399 7.89126 -1.96197 -1 0 1
159 9 3 0.046089 37.9634 7.21068 23.0318 -1 0 0
160 9 3 0.033922 39.1711 10.0143 22.7284 -1 0 0
161 9 3 0.033922 37.8546 9.34457 21.6487 -1 0 0
162 9 3 0.033922 37.5858 9.56575 23.3621 -1 0 0
163 10 1 -0.091211 6.56238 11.2896 6.35564 0 0 1
164 10 1 -0.050311 6.15736 10.555 5.03655 0 0 1
165 10 2 -0.174311 6.25924 9.05565 5.21244 0 0 1
166 10 2 -0.174311 5.45158 8.09834 4.59206 0 0 1
167 10 1 -0.050311 4.30092 8.2862 3.55223 0 0 1
168 10 1 -0.091211 4.87197 8.35341 2.15635 0 0 1
169 10 3 0.033922 5.87096 11.0078 7.15509 0 0 1
170 10 3 0.033922 6.48436 12.3576 6.13258 0 0 1
171 10 3 0.033922 7.5386 11.0195 6.76865 0 0 1
172 10 3 0.046089 5.13106 10.8548 4.80554 0 0 1
173 10 3 0.046089 6.77641 10.9097 4.20736 0 0 1
174 10 4 0.121889 7.07014 8.76887 5.87436 0 0 1
175 10 4 0.121889 5.55773 7.04522 4.832 0 0 1
176 10 3 0.046089 3.80597 9.23154 3.79279 0 0 1
177 10 3 0.046089 3.62964 7.42555 3.6243 0 0 1
178 10 3 0.033922 5.41648 7.41962 1.98885 0 0 1
179 10 3 0.033922 4.0633 8.475 1.42983 0 0 1
180 10 3 0.033922 5.56126 9.18776 1.99743 0 0 1
181 11 1 -0.091211 39.3286 12.1622 0.59727 -1 0 0
182 11 1 -0.050311 -0.204646 11.6063 1.9545 0 0 0
183 11 2 -0.174311 38.6566 11.2626 2.9055 -1 0 0
184 11 2 -0.174311 38.4319 10.1378 3.58007 -1 0 0
185 11 1 -0.050311 39.1772 8.80305 3.20544 -1 0 0
186 11 1 -0.091211 38.1267 7.68082 3.42591 -1 0 0
187 11 3 0.033922 38.6857 11.4645 0.0527396 -1 0 0
188 11 3 0.033922 0.238689 12.2924 0.00060323 0 0 0
189 11 3 0.033922 38.9344 13.1562 0.827698 -1 0 0
190 11 3 0.046089 0.337427 10.6742 1.77071 0 0 0
191 11 3 0.046089 0.505154 12.3358 2.3553 0 0 0
192 11 4 0.121889 38.2112 12.1317 3.37899 -1 0 0
193 11 4 0.121889 37.627 10.1574 4.3078 -1 0 0
194 11 3 0.046089 0.139046 8.58602 3.68413 0 0 0
195 11 3 0.046089 39.4907 8.8687 2.15948 -1 0 0
196 11 3 0.033922 38.3641 6.72931 2.94137 -1 0 0
197 11 3 0.033922 38.1061 7.64801 4.51913 -1 0 0
198 11 3 0.033922 37.1188 7.92836 3.08037 -1 0 0
199 12 1 -0.091211 2.77102 11.9548 7.56968 0 0 0
200 12 1 -0.050311 3.00036 12.8307 6.36642 0 0 0
201 12 2 -0.174311 1.80147 12.9088 5.37445 0 0 0
202 12 2 -0.174311 1.28287 14.0447 4.81457 0 0 0
203 12 1 -0.050311 1.58265 15.4891 5.18762 0 0 0
204 12 1 -0.091211 2.98459 16.0012 4.71562 0 0 0
205 12 3 0.033922 2.61341 10.901 7.32231 0 0 0
206 12 3 0.033922 1.81414 12.3207 7.95316 0 0 0
207 12 3 0.033922 3.56297 12.052 8.31798 0 0 0
208 12 3 0.046089 3.19054 13.8691 6.65291 0 0 0
209 12 3 0.046089 3.9132 12.4308 5.91543 0 0 0
210 12 4 0.121889 1.33222 11.9488 5.18441 0 0 0
211 12 4 0.121889 0.396196 13.999 4.19033 0 0 0
212 12 3 0.046089 1.55599 15.6711 6.26594 0 0 0
213 12 3 0.046089 0.867211 16.1571 4.69928 0 0 0
214 12 3 0.033922 3.80011 15.2847 4.8501 0 0 0
215 12 3 0.033922 3.08756 16.4629 3.72931 0 0 0
216 12 3 0.033922 3.14665 16.8655 5.36625 0 0 0
217 13 1 -0.091211 7.17069 14.5653 8.58847 0 0 0
218 13 1 -0.050311 5.71274 14.3757 8.86644 0 0 0
219 13 2 -0.174311 5.05338 15.7251 9.08102 0 0 0
220 13 2 -0.174311 3.90288 15.9412 9.85622 0 0 0
221 13 1 -0.050311 3.03444 14.879 10.5144 0 0 0
222 13 1 -0.091211 1.57947 14.9442 10.0415 0 0 0
223 13 3 0.033922 7.20359 15.258 7.74248 0 0 0
224 13 3 0.033922 7.4993 13.5691 8.27849 0 0 0
225 13 3 0.033922 7.73243 14.8655 9.47782 0 0 0
226 13 3 0.046089 5.24126 13.9256 7.98798 0 0 0
227 13 3 0.046089 5.52381 13.6506 9.66339 0 0 0
228 13 4 0.121889 5.59273 16.6454 8.8809 0 0 0
229 13 4 0.121889 3.74014 16.9747 10.145 0 0 0
230 13 3 0.046089 3.09309 15.0435 11.5943 0 0 0
231 13 3 0.046089 3.36809 13.8537 10.3301 0 0 0
232 13 3 0.033922 1.05232 15.8003 10.4725 0 0 0
233 13 3 0.033922 1.60163 14.9191 8.94808 0 0 0
234 13 3 0.033922 1.0845 14.057 10.4469 0 0 0
235 14 1 -0.091211 14.1202 9.84421 15.581 0 0 0
236 14 1 -0.050311 12.72 10.3054 15.375 0 0 0
237 14 2 -0.174311 11.6938 9.28084 15.6653 0 0 0
238 14 2 -0.174311 10.3579 9.60463 15.7105 0 0 0
239 14 1 -0.050311 9.74017 10.972 15.5947 0 0 0
240 14 1 -0.091211 8.61999 11.1866 16.6313 0 0 0
241 14 3 0.033922 14.4686 9.19281 14.7743 0 0 0
242 14 3 0.033922 14.2282 9.45173 16.5964 0 0 0
243 14 3 0.033922 14.7862 10.7063 15.4829 0 0 0
244 14 3 0.046089 12.6453 11.2391 15.9399 0 0 0
245 14 3 0.046089 12.6421 10.5711 14.3167 0 0 0
246 14 4 0.121889 11.9251 8.22175 15.7179 0 0 0
247 14 4 0.121889 9.67385 8.76263 15.6784 0 0 0
248 14 3 0.046089 9.21272 11.0676 14.6412 0 0 0
249 14 3 0.046089 10.4969 11.7583 15.669 0 0 0
250 14 3 0.033922 7.9861 12.0658 16.4838 0 0 0
251 14 3 0.033922 7.95792 10.3159 16.6244 0 0 0
252 14 3 0.033922 9.1635 11.1543 17.5801 0 0 0
253 15 1 -0.091211 5.54409 16.6351 15.0457 0 0 0
254 15 1 -0.050311 4.51509 16.8187 16.1702 0 0 0
255 15 2 -0.174311 3.38073 15.8904 15.9878 0 0 0
256 15 2 -0.174311 2.96083 15.0791 17.0183 0 0 0
257 15 1 -0.050311 3.39753 15.0809 18.5242 0 0 0
258 15 1 -0.091211 4.74949 14.2988 18.6423 0 0 0
259 15 3 0.033922 5.93397 15.6176 14.9502 0 0 0
260 15 3 0.033922 6.39191 17.2956 15.2495 0 0 0
261 15 3 0.033922 4.96509 16.8693 14.1476 0 0 0
262 15 3 0.046089 4.8932 16.6373 17.1805 0 0 0
263 15 3 0.046089 4.03409 17.8004 16.132 0 0 0
264 15 4 0.121889 2.84751 15.7846 15.0484 0 0 0
265 15 4 0.121889 2.24905 14.3108 16.7338 0 0 0
266 15 3 0.046089 2.62176 14.6174 19.1405 0 0 0
267 15 3 0.046089 3.52565 16.0897 18.9273 0 0 0
268 15 3 0.033922 4.55399 13.2903 18.2666 0 0 0
269 15 3 0.033922 5.61699 14.6825 18.0975 0 0 0
270 15 3 0.033922 4.91555 14.1692 19.7157 0 0 0
271 16 1 -0.091211 12.4962 16.9607 3.85318 0 0 0
272 16 1 -0.050311 11.4104 18.0338 4.07807 0 0 0
273 16 2 -0.174311 11.942 19.4559 4.00125 0 0 0
274 16 2 -0.174311 11.4554 20.5061 3.29613 0 0 0
275 16 1 -0.050311 10.3733 20.425 2.30318 0 0 0
276 16 1 -0.091211 10.4841 0.645426 1.29995 0 1 0
277 16 3 0.033922 12.7045 16.85 2.78502 0 0 0
278 16 3 0.033922 12.0776 16.0114 4.19977 0 0 0
279 16 3 0.033922 13.4285 17.1795 4.38184 0 0 0
280 16 3 0.046089 10.5674 17.9067 3.3926 0 0 0
281 16 3 0.046089 11.1018 17.9135 5.12064 0 0 0
282 16 4 0.121889 12.6889 19.7935 4.71265 0 0 0
283 16 4 0.121889 12.0537 0.456254 3.41767 0 1 0
284 16 3 0.046089 9.4677 20.6163 2.88612 0 0 0
285 16 3 0.046089 10.3224 19.4229 1.86747 0 0 0
286 16 3 0.033922 9.6071 21.6274 0.647091 0 0 0
287 16 3 0.033922 10.4367 1.59983 1.83231 0 1 0
288 16 3 0.033922 11.4111 0.492098 0.739889 0 1 0
289 17 1 -0.091211 7.96743 18.7213 11.9156 0 0 0
290 17 1 -0.050311 7.06838 19.5436 11.02 0 0 0
291 17 2 -0.174311 5.70067 18.9797 11.2306 0 0 0
292 17 2 -0.174311 4.54297 19.7096 11.5334 0 0 0
293 17 1 -0.050311 4.45974 21.2053 11.6507 0 0 0
294 17 1 -0.091211 3.16941 0.746605 12.2739 0 1 0
295 17 3 0.033922 7.72668 18.8193 12.9782 0 0 0
296 17 3 0.033922 8.98606 19.0571 11.7008 0 0 0
297 17 3 0.033922 7.8917 17.6844 11.5755 0 0 0
298 17 3 0.046089 7.18081 20.5953 11.2989 0 0 0
299 17 3 0.046089 7.44648 19.4187 10.0012 0 0 0
300 17 4 0.121889 5.58182 17.9018 11.1858 0 0 0
301 17 4 0.121889 3.56238 19.2512 11.6126 0 0 0
302 17 3 0.046089 4.41188 0.775156 10.6879 0 1 0
303 17 3 0.046089 5.26999 0.59485 12.3038 0 1 0
304 17 3 0.033922 3.09121 1.83763 12.2818 0 1 0
305 17 3 0.033922 2.24565 0.324642 11.8675 0 1 0
306 17 3 0.033922 3.12158 21.498 13.3491 0 0 0
307 18 1 -0.091211 6.01083 18.0788 0.673395 0 0 1
308 18 1 -0.050311 4.49981 17.8631 1.02094 0 0 1
309 18 2 -0.174311 3.88736 19.1999 1.5011 0 0 1
310 18 2 -0.174311 3.09811 20.0908 0.697717 0 0 1
311 18 1 -0.050311 2.9505 19.8626 -0.775724 0 0 1
312 18 1 -0.091211 2.61885 21.2067 -1.42306 0 0 1
313 18 3 0.033922 6.64166 18.4682 1.47778 0 0 1
314 18 3 0.033922 6.15886 18.792 -0.142709 0 0 1
315 18 3 0.033922 6.40259 17.1225 0.314844 0 0 1
316 18 3 0.046089 3.93722 17.5516 0.136005 0 0 1
317 18 3 0.046089 4.42735 17.0747 1.77582 0 0 1
318 18 4 0.121889 3.99187 19.3871 2.56507 0 0 1
319 18 4 0.121889 2.69373 20.9638 1.19992 0 0 1
320 18 3 0.046089 2.11147 19.2075 -1.02764 0 0 1
321 18 3 0.046089 3.8601 19.4952 -1.25965 0 0 1
322 18 3 0.033922 2.32653 21.1491 23.4492 0 0 0
323 18 3 0.033922 1.79548 0.707781 -0.85948 0 1 1
324 18 3 0.033922 3.42895 0.994504 -1.42128 0 1 1
325 19 1 -0.091211 16.5043 4.36264 -0.497454 0 0 0
326 19 1 -0.050311 15.7257 3.73004 -1.6819 0 0 0
327 19 2 -0.174311 16.6326 3.12285 23.244 0 0 -1
328 19 2 -0.174311 16.3455 3.00818 21.8921 0 0 -1
329 19 1 -0.050311 15.0217 3.31417 21.3124 0 0 -1
330 19 1 -0.091211 15.0205 2.95661 19.8287 0 0 -1
331 19 3 0.033922 17.3305 3.70737 -0.206764 0 0 0
332 19 3 0.033922 15.821 4.4397 0.353233 0 0 0
333 19 3 0.033922 16.957 5.30749 -0.811847 0 0 0
334 19 3 0.046089 15.0694 2.9591 -1.26788 0 0 0
335 19 3 0.046089 15.0635 4.46104 -2.15477 0 0 0
336 19 4 0.121889 17.6269 2.92607 23.632 0 0 -1
337 19 4 0.121889 17.1466 2.61551 21.2741 0 0 -1
338 19 3 0.046089 14.8775 4.39757 21.3568 0 0 -1
339 19 3 0.046089 14.216 2.79302 21.8377 0 0 -1
340 19 3 0.033922 15.29 1.92323 19.5921 0 0 -1
341 19 3 0.033922 14.0043 3.19399 19.5007 0 0 -1
342 19 3 0.033922 15.7474 3.53192 19.2481 0 0 -1
343 20 1 -0.091211 12.468 2.44467 7.24848 0 0 0
344 20 1 -0.050311 12.3853 0.953884 7.56017 0 0 0
345 20 2 -0.174311 12.2384 0.675074 8.99058 0 0 0
346 20 2 -0.174311 11.1557 0.690921 9.86585 0 0 0
347 20 1 -0.050311 9.85033 1.15495 9.50475 0 0 0
348 20 1 -0.091211 9.50384 2.41244 10.3561 0 0 0
349 20 3 0.033922 11.6568 2.96866 7.7622 0 0 0
350 20 3 0.033922 12.4372 2.64767 6.17402 0 0 0
351 20 3 0.033922 13.4089 2.85012 7.63156 0 0 0
352 20 3 0.046089 11.5525 0.477208 7.03504 0 0 0
353 20 3 0.046089 13.2685 0.45541 7.15026 0 0 0
354 20 4 0.121889 13.1413 0.251481 9.41852 0 0 0
355 20 4 0.121889 11.3683 0.352684 10.875 0 0 0
356 20 3 0.046089 9.09417 0.392127 9.71177 0 0 0
357 20 3 0.046089 9.85058 1.5251 8.47538 0 0 0
358 20 3 0.033922 8.55319 2.8747 10.0748 0 0 0
359 20 3 0.033922 9.57925 2.11814 11.407 0 0 0
360 20 3 0.033922 10.2321 3.21572 10.2114 0 0 0
361 21 1 -0.091211 38.6041 20.5132 21.4662 -1 -1 0
362 21 1 -0.050311 -0.0178237 20.416 20.7373 0 -1 0
363 21 2 -0.174311 0.867705 19.2777 21.201 0 -1 0
364 21 2 -0.174311 1.5481 18.5593 20.2564 0 -1 0
365 21 1 -0.050311 1.71467 18.9264 18.7644 0 -1 0
366 21 1 -0.091211 2.6436 20.2156 18.4887 0 -1 0
367 21 3 0.033922 38.1392 19.523 21.4688 -1 -1 0
368 21 3 0.033922 38.0726 21.2867 20.9043 -1 -1 0
369 21 3 0.033922 38.672 20.8983 22.4878 -1 -1 0
370 21 3 0.046089 -0.258562 20.292 19.6775 0 -1 0
371 21 3 0.046089 0.490098 0.437547 20.7435 0 0 0
372 21 4 0.121889 0.86875 19.0132 22.2536 0 -1 0
373 21 4 0.121889 2.04576 17.6713 20.6329 0 -1 0
374 21 3 0.046089 0.733575 19.1027 18.314 0 -1 0
375 21 3 0.046089 2.21225 18.1194 18.2188 0 -1 0
376 21 3 0.033922 2.6252 20.4918 17.4304 0 -1 0
377 21 3 0.033922 2.28938 21.0859 19.0487 0 -1 0
378 21 3 0.033922 3.66205 19.9016 18.735 0 -1 0
379 22 1 -0.091211 7.12307 19.8569 18.8679 0 -1 0
380 22 1 -0.050311 8.3874 20.7029 19.0949 0 -1 0
381 22 2 -0.174311 8.80024 0.732293 17.9754 0 0 0
382 22 2 -0.174311 9.91286 1.55032 18.0549 0 0 0
383 22 1 -0.050311 10.9506 1.53401 19.221 0 0 0
384 22 1 -0.091211 11.1906 2.91052 19.7622 0 0 0
385 22 3 0.033922 6.19496 20.4282 18.9613 0 -1 0
386 22 3 0.033922 6.97533 19.029 19.5675 0 -1 0
387 22 3 0.033922 7.14358 19.4042 17.8723 0 -1 0
388 22 3 0.046089 8.20568 0.383472 19.9721 0 0 0
389 22 3 0.046089 9.20212 19.9832 19.2168 0 -1 0
390 22 4 0.121889 8.13233 0.808302 17.1233 0 0 0
391 22 4 0.121889 10.0383 2.24558 17.231 0 0 0
392 22 3 0.046089 11.9458 1.18735 18.928 0 0 0
393 22 3 0.046089 10.6157 0.86386 20.0181 0 0 0
394 22 3 0.033922 11.6886 3.57 19.0455 0 0 0
395 22 3 0.033922 10.3018 3.50677 19.988 0 0 0
396 22 3 0.033922 11.8721 2.76141 20.6048 0 0 0
397 23 1 -0.091211 9.77322 8.99889 1.11798 0 0 0
398 23 1 -0.050311 9.80572 7.89953 2.12267 0 0 0
399 23 2 -0.174311 9.06196 6.66833 1.53995 0 0 0
400 23 2 -0.174311 8.29434 5.75271 2.24226 0 0 0
401 23 1 -0.050311 8.28444 5.57589 3.75396 0 0 0
402 23 1 -0.091211 9.28439 4.51396 4.2399 0 0 0
403 23 3 0.033922 10.3739 9.83568 1.48601 0 0 0
404 23 3 0.033922 8.75133 9.37036 0.998498 0 0 0
405 23 3 0.033922 10.1077 8.717 0.115356 0 0 0
406 23 3 0.046089 10.8398 7.71403 2.42728 0 0 0
407 23 3 0.046089 9.33063 8.26472 3.03783 0 0 0
408 23 4 0.121889 9.04284 6.59884 0.456983 0 0 0
409 23 4 0.121889 7.76619 4.92493 1.77991 0 0 0
410 23 3 0.046089 7.25137 5.40465 4.07012 0 0 0
411 23 3 0.046089 8.6408 6.50736 4.20329 0 0 0
412 23 3 0.033922 8.85368 3.51307 4.14392 0 0 0
413 23 3 0.033922 10.2014 4.56442 3.64561 0 0 0
414 23 3 0.033922 9.51021 4.76797 5.27966 0 0 0
415 24 1 -0.091211 3.84973 13.1565 1.80446 0 0 0
416 24 1 -0.050311 5.04556 12.5507 1.12899 0 0 0
417 24 2 -0.174311 6.07904 13.6035 0.694699 0 0 0
418 24 2 -0.174311 7.30602 13.9924 1.31624 0 0 0
419 24 1 -0.050311 7.73586 13.358 2.60097 0 0 0
420 24 1 -0.091211 9.11485 13.7577 3.17892 0 0 0
421 24 3 0.033922 4.15112 13.7003 2.70448 0 0 0
422 24 3 0.033922 3.12312 12.3659 2.01317 0 0 0
423 24 3 0.033922 3.40565 13.8192 1.056 0 0 0
424 24 3 0.046089 5.41202 11.8211 1.85697 0 0 0
425 24 3 0.046089 4.71082 11.9501 0.278261 0 0 0
426 24 4 0.121889 5.78383 14.1318 -0.206264 0 0 0
427 24 4 0.121889 7.78365 14.8605 0.873254 0 0 0
428 24 3 0.046089 7.79997 12.2737 2.47154 0 0 0
429 24 3 0.046089 6.97241 13.5837 3.35116 0 0 0
430 24 3 0.033922 9.04425 13.4548 4.22768 0 0 0
431 24 3 0.033922 9.94912 13.3197 2.62332 0 0 0
432 24 3 0.033922 9.20675 14.8436 3.08412 0 0 0
433 25 1 -0.091211 6.23364 6.56924 14.5875 0 0 0
434 25 1 -0.050311 6.07999 5.87356 13.2428 0 0 0
435 25 2 -0.174311 4.67962 6.34665 12.6853 0 0 0
436 25 2 -0.174311 3.98474 5.73922 11.668 0 0 0
437 25 1 -0.050311 4.42345 4.39402 11.0538 0 0 0
438 25 1 -0.091211 3.78435 4.09192 9.73445 0 0 0
439 25 3 0.033922 5.37355 6.296 15.2057 0 0 0
440 25 3 0.033922 6.24611 7.64333 14.3809 0 0 0
441 25 3 0.033922 7.17561 6.32936 15.0892 0 0 0
442 25 3 0.046089 6.89677 6.26928 12.6322 0 0 0
443 25 3 0.046089 6.12218 4.78494 13.341 0 0 0
444 25 4 0.121889 4.2747 7.15567 13.2849 0 0 0
445 25 4 0.121889 2.97233 6.06202 11.4472 0 0 0
446 25 3 0.046089 4.16833 3.61512 11.7783 0 0 0
447 25 3 0.046089 5.50233 4.40168 10.8736 0 0 0
448 25 3 0.033922 3.70957 4.99246 9.11801 0 0 0
449 25 3 0.033922 4.35924 3.47931 9.0339 0 0 0
450 25 3 0.033922 2.86544 3.51024 9.85176 0 0 0
451 26 1 -0.091211 -0.469489 2.06312 11.0112 0 0 0
452 26 1 -0.050311 -0.396698 1.29268 12.3288 0 0 0
453 26 2 -0.174311 0.515685 2.04303 13.2981 0 0 0
454 26 2 -0.174311 0.818857 1.65996 14.5387 0 0 0
455 26 1 -0.050311 0.202192 0.469322 15.2915 0 0 0
456 26 1 -0.091211 -0.422787 0.986466 16.6073 0 0 0
457 26 3 0.033922 39.1675 3.06835 11.248 -1 0 0
458 26 3 0.033922 38.9359 1.49044 10.2914 -1 0 0
459 26 3 0.033922 0.545208 2.13611 10.6092 0 0 0
460 26 3 0.046089 38.6155 1.18339 12.7912 -1 0 0
461 26 3 0.046089 -0.099776 21.2147 12.0895 0 -1 0
462 26 4 0.121889 0.939011 2.93985 12.8572 0 0 0
463 26 4 0.121889 1.61359 2.17896 15.065 0 0 0
464 26 3 0.046089 0.932513 20.6383 15.5311 0 -1 0
465 26 3 0.046089 39.4309 20.9616 14.6601 -1 -1 0
466 26 3 0.033922 39.1216 21.1331 17.1992 -1 -1 0
467 26 3 0.033922 0.322308 1.47668 17.2406 0 0 0
468 26 3 0.033922 38.7359 1.63283 16.333 -1 0 0
469 27 1 -0.091211 20.5253 13.2601 12.9595 0 0 0
470 27 1 -0.050311 20.4326 11.8525 12.3272 0 0 0
471 27 2 -0.174311 21.3974 11.786 11.0943 0 0 0
472 27 2 -0.174311 20.9702 12.0915 9.76603 0 0 0
473 27 1 -0.050311 19.6223 12.6062 9.42723 0 0 0
474 27 1 -0.091211 19.637 13.0323 7.97268 0 0 0
475 27 3 0.033922 19.6239 13.3756 13.5683 0 0 0
476 27 3 0.033922 20.5522 13.9852 12.1409 0 0 0
477 27 3 0.033922 21.4351 13.5108 13.5126 0 0 0
478 27 3 0.046089 20.6628 11.0861 13.073 0 0 0
479 27 3 0.046089 19.3996 11.6226 12.0505 0 0 0
480 27 4 0.121889 22.3963 11.423 11.3143 0 0 0
481 27 4 0.121889 21.7297 12.1405 8.99227 0 0 0
482 27 3 0.046089 19.3462 13.4154 10.1096 0 0 0
483 27 3 0.046089 18.9447 11.7568 9.55258 0 0 0
484 27 3 0.033922 20.3555 12.4047 7.43748 0 0 0
485 27 3 0.033922 18.6455 13.1139 7.51782 0 0 0
486 27 3 0.033922 19.9753 14.0725 7.97387 0 0 0
487 28 1 -0.091211 8.43778 4.14101 23.3181 0 0 -1
488 28 1 -0.050311 7.87742 2.74106 22.9912 0 0 -1
489 28 2 -0.174311 8.4721 1.71415 -2.01276 0 0 0
490 28 2 -0.174311 8.04573 0.379372 -1.98487 0 0 0
491 28 1 -0.050311 6.7785 20.8688 23.2049 0 -1 -1
492 28 1 -0.091211 7.25146 19.5949 22.5067 0 -1 -1
493 28 3 0.033922 7.85785 4.9467 22.8587 0 0 -1
494 28 3 0.033922 9.50501 4.2399 23.0996 0 0 -1
495 28 3 0.033922 8.37502 4.37867 -1.5408 0 0 0
496 28 3 0.046089 6.78472 2.72942 22.9424 0 0 -1
497 28 3 0.046089 8.31418 2.56728 22.0034 0 0 -1
498 28 4 0.121889 9.34152 1.97269 -1.41677 0 0 0
499 28 4 0.121889 8.64449 20.7141 -1.31835 0 -1 0
500 28 3 0.046089 6.41422 0.639848 22.4646 0 0 -1
501 28 3 0.046089 5.95676 20.7125 -2.01509 0 -1 0
502 28 3 0.033922 6.455 19.2958 21.8191 0 -1 -1
503 28 3 0.033922 8.09396 19.774 21.8324 0 -1 -1
504 28 3 0.033922 7.52643 18.8215 23.2297 0 -1 -1
505 29 1 -0.091211 9.98977 7.23423 13.1752 0 0 0
506 29 1 -0.050311 9.8907 6.19079 12.0678 0 0 0
507 29 2 -0.174311 10.0979 6.7648 10.6844 0 0 0
508 29 2 -0.174311 9.39992 6.51344 9.54529 0 0 0
509 29 1 -0.050311 8.06661 5.857 9.46776 0 0 0
510 29 1 -0.091211 7.48703 5.79055 8.00666 0 0 0
511 29 3 0.033922 9.07173 7.82228 13.2641 0 0 0
512 29 3 0.033922 10.8527 7.90466 13.1268 0 0 0
513 29 3 0.033922 10.0745 6.73443 14.1445 0 0 0
514 29 3 0.046089 10.5299 5.34528 12.3381 0 0 0
515 29 3 0.046089 8.86321 5.81587 12.0531 0 0 0
516 29 4 0.121889 10.9739 7.38462 10.522 0 0 0
517 29 4 0.121889 9.77412 6.8908 8.59895 0 0 0
518 29 3 0.046089 7.36641 6.37671 10.1282 0 0 0
519 29 3 0.046089 8.06672 4.83236 9.8507 0 0 0
520 29 3 0.033922 8.1476 5.23286 7.33644 0 0 0
521 29 3 0.033922 6.47246 5.39706 8.11768 0 0 0
522 29 3 0.033922 7.46698 6.77979 7.54026 0 0 0
523 30 1 -0.091211 18.0358 12.34 17.7915 0 0 0
524 30 1 -0.050311 16.5952 12.7794 18.0358 0 0 0
525 30 2 -0.174311 15.9383 12.4503 19.3599 0 0 0
526 30 2 -0.174311 14.5964 12.6641 19.6344 0 0 0
527 30 1 -0.050311 13.6398 13.1661 18.6251 0 0 0
528 30 1 -0.091211 12.5296 14.0763 19.2686 0 0 0
529 30 3 0.033922 18.4485 12.6912 16.8412 0 0 0
530 30 3 0.033922 18.0778 11.247 17.7776 0 0 0
531 30 3 0.033922 18.6584 12.6712 18.6277 0 0 0
532 30 3 0.046089 16.5102 13.8693 17.9974 0 0 0
533 30 3 0.046089 15.9347 12.3983 17.2516 0 0 0
534 30 4 0.121889 16.5393 11.9711 20.1262 0 0 0
535 30 4 0.121889 14.1011 12.2036 20.4833 0 0 0
536 30 3 0.046089 13.1616 12.3005 18.1576 0 0 0
537 30 3 0.046089 14.0175 13.6712 17.7313 0 0 0
538 30 3 0.033922 12.8866 15.0219 19.6867 0 0 0
539 30 3 0.033922 11.7667 14.3933 18.5516 0 0 0
540 30 3 0.033922 12.0649 13.6037 20.1389 0 0 0
541 31 1 -0.091211 19.5613 3.96444 14.5662 0 1 0
542 31 1 -0.050311 19.6799 2.90962 15.6211 0 1 0
543 31 2 -0.174311 21.1145 2.48289 15.6162 0 1 0
544 31 2 -0.174311 21.5709 1.32834 16.3126 0 1 0
545 31 1 -0.050311 20.6862 21.1105 16.82 0 0 0
546 31 1 -0.091211 20.713 19.9519 15.7929 0 0 0
547 31 3 0.033922 19.8197 3.60833 13.5647 0 1 0
548 31 3 0.033922 20.134 4.8639 14.8102 0 1 0
549 31 3 0.033922 18.5428 4.35009 14.4639 0 1 0
550 31 3 0.046089 19.3571 3.2354 16.6142 0 1 0
551 31 3 0.046089 19.0113 2.104 15.3041 0 1 0
552 31 4 0.121889 21.8706 3.2074 15.331 0 1 0
553 31 4 0.121889 22.6349 1.34523 16.526 0 1 0
554 31 3 0.046089 19.6502 0.509158 16.8799 0 1 0
555 31 3 0.046089 20.9149 20.8177 17.8489 0 0 0
556 31 3 0.033922 20.8927 20.3972 14.81 0 0 0
557 31 3 0.033922 21.5597 19.2896 15.9952 0 0 0
558 31 3 0.033922 19.7648 19.4127 15.7116 0 0 0
559 32 1 -0.091211 17.0464 17.3158 6.52568 0 0 0
560 32 1 -0.050311 16.6337 18.6401 7.22829 0 0 0
561 32 2 -0.174311 16.3863 19.7433 6.21491 0 0 0
562 32 2 -0.174311 16.3227 21.0644 6.48797 0 0 0
563 32 1 -0.050311 16.2178 0.710388 7.8136 0 1 0
564 32 1 -0.091211 17.4523 1.62343 8.08354 0 1 0
565 32 3 0.033922 17.9969 17.3406 5.98486 0 0 0
566 32 3 0.033922 16.2753 16.9762 5.82815 0 0 0
567 32 3 0.033922 17.1828 16.504 7.24605 0 0 0
568 32 3 0.046089 15.7051 18.4147 7.76081 0 0 0
569 32 3 0.046089 17.3665 18.9926 7.95989 0 0 0
570 32 4 0.121889 16.3048 19.5114 5.15775 0 0 0
571 32 4 0.121889 16.2377 0.847579 5.68971 0 1 0
572 32 3 0.046089 16.2533 20.8923 8.59433 0 0 0
573 32 3 0.046089 15.2581 1.23117 7.87926 0 1 0
574 32 3 0.033922 17.4101 2.08188 9.07583 0 1 0
575 32 3 0.033922 18.3825 1.05392 8.00001 0 1 0
576 32 3 0.033922 17.4969 2.45785 7.37762 0 1 0
577 33 1 -0.091211 9.92087 15.2823 6.64131 0 0 0
578 33 1 -0.050311 11.0703 15.0628 7.53631 0 0 0
579 33 2 -0.174311 12.1418 16.1561 7.36316 0 0 0
580 33 2 -0.174311 12.1937 17.3801 8.07242 0 0 0
581 33 1 -0.050311 11.1137 17.8427 9.07415 0 0 0
582 33 1 -0.091211 11.73 18.2708 10.4371 0 0 0
583 33 3 0.033922 10.3558 15.2174 5.63969 0 0 0
584 33 3 0.033922 9.42803 16.2341 6.85963 0 0 0
585 33 3 0.033922 9.13615 14.5227 6.58103 0 0 0
586 33 3 0.046089 10.7035 15.0404 8.56664 0 0 0
587 33 3 0.046089 11.4875 14.0682 7.354 0 0 0
588 33 4 0.121889 12.8975 16.0195 6.59621 0 0 0
589 33 4 0.121889 13.0005 18.0484 7.78902 0 0 0
590 33 3 0.046089 10.4631 17.0179 9.37896 0 0 0
591 33 3 0.046089 10.44 18.6544 8.78454 0 0 0
592 33 3 0.033922 12.5192 19.0126 10.284 0 0 0
593 33 3 0.033922 11.0484 18.5196 11.2557 0 0 0
594 33 3 0.033922 12.2703 17.3843 10.7817 0 0 0
595 34 1 -0.091211 21.2089 17.1231 12.8157 0 0 0
596 34 1 -0.050311 20.9934 16.646 14.2302 0 0 0
597 34 2 -0.174311 22.2435 16.5854 14.9881 0 0 0
598 34 2 -0.174311 22.3954 16.0545 16.2823 0 0 0
599 34 1 -0.050311 21.3227 15.6948 17.2557 0 0 0
600 34 1 -0.091211 21.5736 15.929 18.7539 0 0 0
601 34 3 0.033922 21.8828 17.9817 12.7442 0 0 0
602 34 3 0.033922 20.2215 17.366 12.4125 0 0 0
603 34 3 0.033922 21.6344 16.367 12.1495 0 0 0
604 34 3 0.046089 20.211 17.272 14.6688 0 0 0
605 34 3 0.046089 20.6157 15.6198 14.2031 0 0 0
606 34 4 0.121889 23.1635 16.692 14.4223 0 0 0
607 34 4 0.121889 23.4391 15.9517 16.562 0 0 0
608 34 3 0.046089 21.2186 14.6239 17.0584 0 0 0
609 34 3 0.046089 20.3409 16.1246 17.037 0 0 0
610 34 3 0.033922 21.7793 16.9729 19.0077 0 0 0
611 34 3 0.033922 20.7143 15.6962 19.3895 0 0 0
612 34 3 0.033922 22.454 15.3722 19.0878 0 0 0
613 35 1 -0.091211 38.9455 10.4584 18.3206 -1 0 0
614 35 1 -0.050311 0.265879 10.8007 19.1414 0 0 0
615 35 2 -0.174311 1.44809 9.8502 18.7928 0 0 0
616 35 2 -0.174311 2.46766 9.50999 19.6453 0 0 0
617 35 1 -0.050311 2.56785 9.81187 21.1119 0 0 0
618 35 1 -0.091211 3.69143 10.8288 21.3723 0 0 0
619 35 3 0.033922 38.052 11.0651 18.4939 -1 0 0