ITEM: TIMESTEP
84000
ITEM: NUMBER OF ATOMS
1800
ITEM: BOX BOUNDS pp pp pp
-4.3386984467321739e+00 4.3146713946731040e+01
1.4137320264074908e+00 2.0194923473592901e+01
-7.3610729924615903e-01 2.1989840799245545e+01
ITEM: ATOMS id mol type q x y z ix iy iz
1 1 1 -0.091211 5.26123 10.1536 16.704 0 -1 0
2 1 1 -0.050311 4.62902 11.1481 15.8223 0 -1 0
3 1 2 -0.174311 4.21801 10.3912 14.5671 0 -1 0
4 1 2 -0.174311 4.4922 10.7263 13.2651 0 -1 0
5 1 1 -0.050311 5.21804 11.9711 12.8411 0 -1 0
6 1 1 -0.091211 5.78136 11.8736 11.5066 0 -1 0
7 1 3 0.033922 4.54227 9.34248 16.8516 0 -1 0
8 1 3 0.033922 5.49508 10.4594 17.7279 0 -1 0
9 1 3 0.033922 6.19231 9.81747 16.2384 0 -1 0
10 1 3 0.046089 3.66587 11.4736 16.2261 0 -1 0
11 1 3 0.046089 5.29548 11.9863 15.599 0 -1 0
12 1 4 0.121889 3.62995 9.47901 14.578 0 -1 0
13 1 4 0.121889 4.13673 10.0579 12.4874 0 -1 0
14 1 3 0.046089 6.00992 12.242 13.5455 0 -1 0
15 1 3 0.046089 4.46611 12.7645 12.8832 0 -1 0
16 1 3 0.033922 6.16653 12.8463 11.1871 0 -1 0
17 1 3 0.033922 6.60484 11.1535 11.5106 0 -1 0
18 1 3 0.033922 5.08301 11.4603 10.773 0 -1 0
19 2 1 -0.091211 8.83867 5.2425 8.84177 0 0 0
20 2 1 -0.050311 9.13364 5.16784 10.348 0 0 0
21 2 2 -0.174311 9.88542 3.81563 10.6489 0 0 0
22 2 2 -0.174311 10.6515 3.50161 11.8163 0 0 0
23 2 1 -0.050311 10.7213 4.39262 13.0011 0 0 0
24 2 1 -0.091211 11.0248 3.54903 14.2525 0 0 0
25 2 3 0.033922 8.43544 4.28986 8.48609 0 0 0
26 2 3 0.033922 9.70513 5.56973 8.2597 0 0 0
27 2 3 0.033922 8.00815 5.95049 8.76669 0 0 0
28 2 3 0.046089 9.70217 6.05567 10.6398 0 0 0
29 2 3 0.046089 8.18601 5.20072 10.8935 0 0 0
30 2 4 0.121889 9.8319 2.95512 9.98963 0 0 0
31 2 4 0.121889 11.0826 2.50852 11.8936 0 0 0
32 2 3 0.046089 9.88099 5.08472 13.1081 0 0 0
33 2 3 0.046089 11.5921 5.03069 12.8242 0 0 0
34 2 3 0.033922 10.9546 4.12211 15.1816 0 0 0
35 2 3 0.033922 10.2473 2.77984 14.2335 0 0 0
36 2 3 0.033922 12.0354 3.13021 14.2436 0 0 0
37 3 1 -0.091211 1.46976 2.24624 11.5303 0 0 0
38 3 1 -0.050311 2.34248 2.80672 10.3742 0 0 0
39 3 2 -0.174311 2.95921 20.3528 9.72137 0 -1 0
40 3 2 -0.174311 4.26593 19.9175 9.79938 0 -1 0
41 3 1 -0.050311 5.23434 1.88637 10.7074 0 0 0
42 3 1 -0.091211 5.62973 3.26314 10.0988 0 0 0
43 3 3 0.033922 0.665657 1.54776 11.2809 0 0 0
44 3 3 0.033922 1.01158 3.17325 11.8871 0 0 0
45 3 3 0.033922 2.09763 1.76303 12.2845 0 0 0
46 3 3 0.046089 1.80618 3.44415 9.66518 0 0 0
47 3 3 0.046089 3.11749 3.43163 10.8275 0 0 0
48 3 4 0.121889 2.20039 19.7875 9.18971 0 -1 0
49 3 4 0.121889 4.57967 18.9921 9.327 0 -1 0
50 3 3 0.046089 6.15763 20.087 10.7922 0 -1 0
51 3 3 0.046089 4.83274 2.00163 11.7184 0 0 0
52 3 3 0.033922 5.63674 4.09286 10.8117 0 0 0
53 3 3 0.033922 6.5979 3.14004 9.60474 0 0 0
54 3 3 0.033922 4.84726 3.47467 9.36426 0 0 0
55 4 1 -0.091211 -2.72773 16.7534 12.295 0 -1 0
56 4 1 -0.050311 -1.78017 16.7846 13.4995 0 -1 0
57 4 2 -0.174311 -1.8758 18.2504 13.9289 0 -1 0
58 4 2 -0.174311 -0.855284 19.1029 14.2051 0 -1 0
59 4 1 -0.050311 0.608058 18.6832 14.1175 0 -1 0
60 4 1 -0.091211 1.50433 19.6807 14.9203 0 -1 0
61 4 3 0.033922 -3.67881 17.2047 12.5924 0 -1 0
62 4 3 0.033922 -2.97271 15.721 12.0289 0 -1 0
63 4 3 0.033922 -2.29885 17.18 11.3836 0 -1 0
64 4 3 0.046089 -2.23721 16.1064 14.226 0 -1 0
65 4 3 0.046089 -0.745784 16.4693 13.3343 0 -1 0
66 4 4 0.121889 -2.88904 18.548 14.1796 0 -1 0
67 4 4 0.121889 -1.02403 20.1478 14.4452 0 -1 0
68 4 3 0.046089 0.897634 18.5792 13.0678 0 -1 0
69 4 3 0.046089 0.681897 17.7348 14.6575 0 -1 0
70 4 3 0.033922 1.29378 19.5524 15.986 0 -1 0
71 4 3 0.033922 2.56514 19.4487 14.788 0 -1 0
72 4 3 0.033922 1.37673 1.95431 14.6602 0 0 0
73 5 1 -0.091211 -2.55403 7.58692 9.84349 0 0 0
74 5 1 -0.050311 -3.09033 8.96212 9.39965 0 0 0
75 5 2 -0.174311 43.0023 9.2412 9.83484 -1 0 0
76 5 2 -0.174311 42.3131 10.4227 9.61702 -1 0 0
77 5 1 -0.050311 42.7565 11.7245 8.97638 -1 0 0
78 5 1 -0.091211 41.5275 12.294 8.3168 -1 0 0
79 5 3 0.033922 -2.67894 7.53602 10.929 0 0 0
80 5 3 0.033922 -1.50879 7.40027 9.58027 0 0 0
81 5 3 0.033922 -3.17372 6.84681 9.32886 0 0 0
82 5 3 0.046089 -2.43375 9.71443 9.84637 0 0 0
83 5 3 0.046089 -2.98958 9.04747 8.31375 0 0 0
84 5 4 0.121889 42.488 8.55304 10.4981 -1 0 0
85 5 4 0.121889 41.4161 10.4365 10.228 -1 0 0
86 5 3 0.046089 -3.86514 11.6205 8.31324 0 0 0
87 5 3 0.046089 -4.37402 12.3623 9.79119 0 0 0
88 5 3 0.033922 40.9748 12.8944 9.0452 -1 0 0
89 5 3 0.033922 41.7547 12.9352 7.46014 -1 0 0
90 5 3 0.033922 40.8871 11.44 8.07766 -1 0 0
91 6 1 -0.091211 8.50354 6.83429 0.000640805 0 0 1
92 6 1 -0.050311 8.77969 5.5762 -0.789682 0 0 1
93 6 2 -0.174311 8.27055 4.45561 0.0546198 0 0 1
94 6 2 -0.174311 7.12436 3.7795 -0.0528393 0 0 1
95 6 1 -0.050311 5.98898 4.17483 21.8123 0 0 0
96 6 1 -0.091211 5.57431 3.10304 20.8328 0 0 0
97 6 3 0.033922 8.98977 7.69353 -0.470433 0 0 1
98 6 3 0.033922 8.85031 6.80424 1.03768 0 0 1
99 6 3 0.033922 7.4258 7.02177 -0.00055633 0 0 1
100 6 3 0.046089 8.26874 5.66123 20.9728 0 0 0
101 6 3 0.046089 9.84425 5.42924 21.7319 0 0 0
102 6 4 0.121889 8.97291 4.13684 0.81822 0 0 1
103 6 4 0.121889 7.00223 2.87114 0.528499 0 0 1
104 6 3 0.046089 6.31893 5.11136 21.3533 0 0 0
105 6 3 0.046089 5.12734 4.40721 -0.281029 0 0 1
106 6 3 0.033922 4.66548 3.60456 20.4877 0 0 0
107 6 3 0.033922 6.20554 2.91379 19.9597 0 0 0
108 6 3 0.033922 5.30885 2.19172 21.3766 0 0 0
109 7 1 -0.091211 33.0104 3.52517 20.3398 -1 1 -1
110 7 1 -0.050311 32.2722 3.44584 19.0021 -1 1 -1
111 7 2 -0.174311 31.6182 4.75214 18.5634 -1 1 -1
112 7 2 -0.174311 31.0705 5.0484 17.3025 -1 1 -1
113 7 1 -0.050311 31.1089 4.13723 16.15 -1 1 -1
114 7 1 -0.091211 31.1082 4.96042 14.8834 -1 1 -1
115 7 3 0.033922 32.3153 3.68002 21.1702 -1 1 -1
116 7 3 0.033922 33.6762 4.38925 20.4221 -1 1 -1
117 7 3 0.033922 33.6155 2.65253 20.6024 -1 1 -1
118 7 3 0.046089 32.9415 3.10547 18.2066 -1 1 -1
119 7 3 0.046089 31.5115 2.67513 19.1568 -1 1 -1
120 7 4 0.121889 31.3475 5.44691 19.3521 -1 1 -1
121 7 4 0.121889 30.7623 6.07891 17.1572 -1 1 -1
122 7 3 0.046089 30.1615 3.59074 16.1698 -1 1 -1
123 7 3 0.046089 32.0077 3.52158 16.2491 -1 1 -1
124 7 3 0.033922 31.9412 5.6688 14.9145 -1 1 -1
125 7 3 0.033922 31.4451 4.28636 14.0904 -1 1 -1
126 7 3 0.033922 30.2323 5.53054 14.5602 -1 1 -1
127 8 1 -0.091211 -2.85738 7.39038 0.636756 0 0 1
128 8 1 -0.050311 -3.98866 8.33867 0.840331 0 0 1
129 8 2 -0.174311 42.2859 7.95051 -0.0157745 -1 0 1
130 8 2 -0.174311 40.9971 7.57743 0.35933 -1 0 1
131 8 1 -0.050311 40.5465 7.41816 1.76713 -1 0 1
132 8 1 -0.091211 39.4592 8.4747 2.15253 -1 0 1
133 8 3 0.033922 -2.53526 7.38479 -0.408623 0 0 1
134 8 3 0.033922 -3.18918 6.37821 0.88583 0 0 1
135 8 3 0.033922 -2.03379 7.70999 1.28188 0 0 1
136 8 3 0.046089 -4.33596 8.47703 1.86836 0 0 1
137 8 3 0.046089 -3.64597 9.33167 0.535161 0 0 1
138 8 4 0.121889 42.5121 7.77581 21.6631 -1 0 0
139 8 4 0.121889 40.4461 7.05238 -0.414503 -1 0 1
140 8 3 0.046089 41.4412 7.54153 2.38437 -1 0 1
141 8 3 0.046089 40.1536 6.40905 1.92179 -1 0 1
142 8 3 0.033922 39.1505 8.43981 3.20139 -1 0 1
143 8 3 0.033922 39.8462 9.48093 1.96708 -1 0 1
144 8 3 0.033922 38.5891 8.26962 1.52201 -1 0 1
145 9 1 -0.091211 34.8815 6.51837 21.5123 -1 1 0
146 9 1 -0.050311 35.8777 7.47945 -0.508659 -1 1 1
147 9 2 -0.174311 35.0286 8.42906 0.321044 -1 1 1
148 9 2 -0.174311 34.8415 8.34325 1.65685 -1 1 1
149 9 1 -0.050311 35.2107 7.18424 2.5314 -1 1 1
150 9 1 -0.091211 34.9452 7.60882 3.96813 -1 1 1
151 9 3 0.033922 34.303 5.93836 -0.488629 -1 1 1
152 9 3 0.033922 35.466 5.82668 20.8987 -1 1 0
153 9 3 0.033922 34.1301 6.9623 20.8529 -1 1 0
154 9 3 0.046089 36.5065 6.93429 0.201329 -1 1 1
155 9 3 0.046089 36.4103 8.02013 21.4295 -1 1 0
156 9 4 0.121889 34.4617 9.09852 -0.318018 -1 1 1
157 9 4 0.121889 34.2954 9.19932 2.04018 -1 1 1
158 9 3 0.046089 36.2232 6.81565 2.34258 -1 1 1
159 9 3 0.046089 34.5249 6.39453 2.21095 -1 1 1
160 9 3 0.033922 33.8704 7.81012 3.99943 -1 1 1
161 9 3 0.033922 35.18 6.83795 4.70791 -1 1 1
162 9 3 0.033922 35.5611 8.45722 4.28043 -1 1 1
163 10 1 -0.091211 7.96799 9.53866 5.05748 0 0 1
164 10 1 -0.050311 8.5478 8.12825 5.18558 0 0 1
165 10 2 -0.174311 9.70146 7.91214 4.17936 0 0 1
166 10 2 -0.174311 10.4226 6.71869 4.07268 0 0 1
167 10 1 -0.050311 10.2708 5.564 5.07112 0 0 1
168 10 1 -0.091211 9.89049 4.30823 4.31657 0 0 1
169 10 3 0.033922 8.61838 10.3645 5.36014 0 0 1
170 10 3 0.033922 7.09378 9.65616 5.70447 0 0 1
171 10 3 0.033922 7.71372 9.59397 3.99499 0 0 1
172 10 3 0.046089 8.94754 7.9991 6.1956 0 0 1
173 10 3 0.046089 7.76641 7.37944 5.02634 0 0 1
174 10 4 0.121889 9.96703 8.70809 3.49093 0 0 1
175 10 4 0.121889 11.2362 6.64056 3.35846 0 0 1
176 10 3 0.046089 9.44275 5.85615 5.72346 0 0 1
177 10 3 0.046089 11.1779 5.32456 5.63372 0 0 1
178 10 3 0.033922 8.94936 4.3345 3.75958 0 0 1
179 10 3 0.033922 10.6965 4.02772 3.63223 0 0 1
180 10 3 0.033922 9.69751 3.47995 5.00455 0 0 1
181 11 1 -0.091211 0.484765 13.2335 16.4016 0 0 0
182 11 1 -0.050311 0.0417859 14.7364 16.3812 0 0 0
183 11 2 -0.174311 1.25687 15.6245 16.5814 0 0 0
184 11 2 -0.174311 1.12396 16.8013 17.2967 0 0 0
185 11 1 -0.050311 -0.109659 17.3762 17.9449 0 0 0
186 11 1 -0.091211 -0.417804 16.5868 19.2088 0 0 0
187 11 3 0.033922 -0.329483 12.5183 16.2532 0 0 0
188 11 3 0.033922 0.965697 12.9129 17.3303 0 0 0
189 11 3 0.033922 1.10122 13.1564 15.5013 0 0 0
190 11 3 0.046089 -0.213314 14.9027 15.3305 0 0 0
191 11 3 0.046089 -0.808515 14.979 17.0252 0 0 0
192 11 4 0.121889 2.24866 15.3826 16.2127 0 0 0
193 11 4 0.121889 1.99982 17.4007 17.5241 0 0 0
194 11 3 0.046089 -0.901765 17.3646 17.1905 0 0 0
195 11 3 0.046089 0.0121747 18.4291 18.2153 0 0 0
196 11 3 0.033922 0.255112 16.8995 20.0125 0 0 0
197 11 3 0.033922 -1.41178 16.9249 19.516 0 0 0
198 11 3 0.033922 -0.419251 15.4963 19.1219 0 0 0
199 12 1 -0.091211 5.4617 7.72007 7.84338 0 0 0
200 12 1 -0.050311 4.48199 8.72054 8.34964 0 0 0
201 12 2 -0.174311 3.1926 8.00045 8.71828 0 0 0
202 12 2 -0.174311 1.89009 8.41628 8.52753 0 0 0
203 12 1 -0.050311 1.53197 9.7715 7.92233 0 0 0
204 12 1 -0.091211 0.0414233 10.1186 8.29916 0 0 0
205 12 3 0.033922 6.34911 8.14062 7.36143 0 0 0
206 12 3 0.033922 4.96245 7.1456 7.05766 0 0 0
207 12 3 0.033922 5.73709 7.05228 8.66486 0 0 0
208 12 3 0.046089 5.00823 9.12482 9.21927 0 0 0
209 12 3 0.046089 4.34857 9.50297 7.5969 0 0 0
210 12 4 0.121889 3.27858 7.2034 9.44993 0 0 0
211 12 4 0.121889 1.13356 7.73614 8.90581 0 0 0
212 12 3 0.046089 1.68714 9.6379 6.84776 0 0 0
213 12 3 0.046089 2.20904 10.6136 8.09303 0 0 0
214 12 3 0.033922 -0.667906 9.39036 7.89531 0 0 0
215 12 3 0.033922 -0.0997006 10.0494 9.3817 0 0 0
216 12 3 0.033922 -0.232226 11.1319 7.99073 0 0 0
217 13 1 -0.091211 -3.83306 15.5784 8.00116 0 0 1
218 13 1 -0.050311 -2.39239 15.079 7.98804 0 0 1
219 13 2 -0.174311 -1.97756 14.5988 9.33213 0 0 1
220 13 2 -0.174311 -0.820871 14.8373 10.0111 0 0 1
221 13 1 -0.050311 0.393298 15.6116 9.45472 0 0 1
222 13 1 -0.091211 1.51454 14.6963 9.09721 0 0 1
223 13 3 0.033922 -4.2786 15.7077 7.01051 0 0 1
224 13 3 0.033922 -3.94637 16.5145 8.55555 0 0 1
225 13 3 0.033922 -4.46002 14.8827 8.56655 0 0 1
226 13 3 0.046089 -2.18889 14.2747 7.27512 0 0 1
227 13 3 0.046089 -1.76448 15.9338 7.72034 0 0 1
228 13 4 0.121889 -2.67612 14.039 9.94586 0 0 1
229 13 4 0.121889 -0.858335 14.4389 11.02 0 0 1
230 13 3 0.046089 0.752381 16.3108 10.2155 0 0 1
231 13 3 0.046089 0.0814895 16.2744 8.64233 0 0 1
232 13 3 0.033922 1.28945 14.1525 8.17514 0 0 1
233 13 3 0.033922 2.42205 15.3029 9.02623 0 0 1
234 13 3 0.033922 1.74137 13.9493 9.86348 0 0 1
235 14 1 -0.091211 13.9108 9.41916 5.91974 0 0 0
236 14 1 -0.050311 13.3108 8.59096 4.72297 0 0 0
237 14 2 -0.174311 14.3397 7.9499 3.86123 0 0 0
238 14 2 -0.174311 14.3477 7.77156 2.48665 0 0 0
239 14 1 -0.050311 13.1839 7.96599 1.64544 0 0 0
240 14 1 -0.091211 12.915 6.9102 0.683225 0 0 0
241 14 3 0.033922 14.4863 10.2802 5.56769 0 0 0
242 14 3 0.033922 14.5516 8.77286 6.52657 0 0 0
243 14 3 0.033922 13.0873 9.88573 6.46821 0 0 0
244 14 3 0.046089 12.8173 7.68968 5.09813 0 0 0
245 14 3 0.046089 12.5885 9.12234 4.09638 0 0 0
246 14 4 0.121889 15.2698 7.71269 4.36796 0 0 0
247 14 4 0.121889 15.2023 7.29305 2.01915 0 0 0
248 14 3 0.046089 13.3876 8.83191 1.0088 0 0 0
249 14 3 0.046089 12.3096 8.13667 2.28032 0 0 0
250 14 3 0.033922 12.1287 7.26069 0.00829097 0 0 0
251 14 3 0.033922 13.7899 6.78493 0.038745 0 0 0
252 14 3 0.033922 12.6138 5.97758 1.16914 0 0 0
253 15 1 -0.091211 4.14613 7.70278 -0.507724 0 1 1
254 15 1 -0.050311 3.06908 7.00112 21.3735 0 1 0
255 15 2 -0.174311 1.7984 7.68158 21.6579 0 1 0
256 15 2 -0.174311 0.900981 7.35143 -0.117817 0 1 1
257 15 1 -0.050311 1.07788 6.36532 0.999416 0 1 1
258 15 1 -0.091211 0.180433 5.12596 0.70769 0 1 1
259 15 3 0.033922 4.32913 8.73027 21.8905 0 1 0
260 15 3 0.033922 5.09371 7.16468 22.3141 0 1 0
261 15 3 0.033922 3.81692 7.70695 0.535452 0 1 1
262 15 3 0.046089 3.21023 7.05783 20.2903 0 1 0
263 15 3 0.046089 3.12377 5.94291 21.6452 0 1 0
264 15 4 0.121889 1.60988 8.54513 21.028 0 1 0
265 15 4 0.121889 -0.00541458 7.9483 -0.133121 0 1 1
266 15 3 0.046089 0.822209 6.78255 1.97777 0 1 1
267 15 3 0.046089 2.10026 5.998 1.12781 0 1 1
268 15 3 0.033922 -0.892374 5.33606 0.667622 0 1 1
269 15 3 0.033922 0.449967 4.76983 -0.290877 0 1 1
270 15 3 0.033922 0.361315 4.31228 1.41608 0 1 1
271 16 1 -0.091211 13.5061 5.04277 9.96809 0 1 0
272 16 1 -0.050311 13.1267 5.27684 8.61091 0 1 0
273 16 2 -0.174311 12.4483 4.08186 8.00899 0 1 0
274 16 2 -0.174311 12.7844 3.40491 6.79056 0 1 0
275 16 1 -0.050311 14.0028 3.64245 5.8317 0 1 0
276 16 1 -0.091211 13.5577 3.87962 4.37893 0 1 0
277 16 3 0.033922 14.3249 4.36225 10.2191 0 1 0
278 16 3 0.033922 12.6734 4.61326 10.5327 0 1 0
279 16 3 0.033922 13.7641 6.0239 10.3772 0 1 0
280 16 3 0.046089 12.3788 6.07317 8.55477 0 1 0
281 16 3 0.046089 13.9829 5.56386 7.99343 0 1 0
282 16 4 0.121889 11.5656 3.65578 8.47529 0 1 0
283 16 4 0.121889 12.1412 2.67639 6.30727 0 1 0
284 16 3 0.046089 14.7284 2.82896 5.92344 0 1 0
285 16 3 0.046089 14.548 4.48429 6.26841 0 1 0
286 16 3 0.033922 12.7684 4.63366 4.30836 0 1 0
287 16 3 0.033922 14.4203 4.23516 3.80775 0 1 0
288 16 3 0.033922 13.1287 2.95612 3.97937 0 1 0
289 17 1 -0.091211 11.1096 9.72773 10.4996 0 0 0
290 17 1 -0.050311 11.4238 10.1682 9.06717 0 0 0
291 17 2 -0.174311 11.6262 11.6616 8.86486 0 0 0
292 17 2 -0.174311 10.7096 12.6733 8.53728 0 0 0
293 17 1 -0.050311 9.23792 12.4081 8.53048 0 0 0
294 17 1 -0.091211 8.63551 12.8167 7.22489 0 0 0
295 17 3 0.033922 10.9301 8.64869 10.508 0 0 0
296 17 3 0.033922 10.2504 10.3543 10.7562 0 0 0
297 17 3 0.033922 11.929 9.97076 11.1824 0 0 0
298 17 3 0.046089 12.3036 9.55421 8.85396 0 0 0
299 17 3 0.046089 10.5919 9.76337 8.48349 0 0 0
300 17 4 0.121889 12.6709 11.954 8.83209 0 0 0
301 17 4 0.121889 11.0487 13.6965 8.4101 0 0 0
302 17 3 0.046089 8.73736 12.8459 9.39904 0 0 0
303 17 3 0.046089 9.10906 11.3311 8.67249 0 0 0
304 17 3 0.033922 8.64962 13.9043 7.10902 0 0 0
305 17 3 0.033922 9.14457 12.351 6.37597 0 0 0
306 17 3 0.033922 7.56701 12.5823 7.22047 0 0 0
307 18 1 -0.091211 33.3216 8.60852 16.8119 -1 0 1
308 18 1 -0.050311 34.6031 7.80818 16.9683 -1 0 1
309 18 2 -0.174311 34.3832 6.36238 16.6766 -1 0 1
310 18 2 -0.174311 34.89 5.5954 15.5821 -1 0 1
311 18 1 -0.050311 35.8048 6.13707 14.4624 -1 0 1
312 18 1 -0.091211 35.7253 5.28017 13.2348 -1 0 1
313 18 3 0.033922 33.5267 9.67026 16.6468 -1 0 1
314 18 3 0.033922 32.7927 8.47234 17.7597 -1 0 1
315 18 3 0.033922 32.7011 8.3296 15.9553 -1 0 1
316 18 3 0.046089 35.4455 8.18722 16.3823 -1 0 1
317 18 3 0.046089 34.9796 7.86743 17.9937 -1 0 1
318 18 4 0.121889 33.9071 5.69323 17.3863 -1 0 1
319 18 4 0.121889 34.7517 4.53396 15.7615 -1 0 1
320 18 3 0.046089 36.7793 6.01165 14.9433 -1 0 1
321 18 3 0.046089 35.6263 7.18051 14.1868 -1 0 1
322 18 3 0.033922 36.5045 4.51238 13.2238 -1 0 1
323 18 3 0.033922 34.7116 4.86974 13.2131 -1 0 1
324 18 3 0.033922 35.9451 5.83689 12.3191 -1 0 1
325 19 1 -0.091211 11.9436 11.2079 0.0519614 0 0 0
326 19 1 -0.050311 10.706 11.8347 -0.729717 0 0 0
327 19 2 -0.174311 9.82358 10.8173 21.2623 0 0 -1
328 19 2 -0.174311 8.63999 11.0845 20.7406 0 0 -1
329 19 1 -0.050311 7.86254 12.3702 20.8835 0 0 -1
330 19 1 -0.091211 7.77929 13.1402 19.5635 0 0 -1
331 19 3 0.033922 12.4636 11.9783 0.628699 0 0 0
332 19 3 0.033922 12.6364 10.6893 22.1088 0 0 -1
333 19 3 0.033922 11.6555 10.4826 0.818524 0 0 0
334 19 3 0.046089 10.1848 12.4075 0.042867 0 0 0
335 19 3 0.046089 11.0397 12.5541 21.2428 0 0 -1
336 19 4 0.121889 10.3367 9.88756 21.0381 0 0 -1
337 19 4 0.121889 8.18965 10.3092 20.129 0 0 -1
338 19 3 0.046089 8.13143 12.9557 21.7675 0 0 -1
339 19 3 0.046089 6.87198 12.0585 21.2274 0 0 -1
340 19 3 0.033922 7.51303 12.5192 18.7031 0 0 -1
341 19 3 0.033922 7.02074 13.917 19.6968 0 0 -1
342 19 3 0.033922 8.78054 13.5318 19.3614 0 0 -1
343 20 1 -0.091211 12.7694 14.9118 6.82692 0 -1 0
344 20 1 -0.050311 13.1538 15.6338 5.55654 0 -1 0
345 20 2 -0.174311 12.52 17.0039 5.45466 0 -1 0
346 20 2 -0.174311 12.1874 17.6096 4.21489 0 -1 0
347 20 1 -0.050311 12.1442 17.0027 2.8477 0 -1 0
348 20 1 -0.091211 11.697 18.0269 1.80406 0 -1 0
349 20 3 0.033922 11.6839 14.961 6.95278 0 -1 0
350 20 3 0.033922 13.3312 15.3041 7.67961 0 -1 0
351 20 3 0.033922 13.0692 13.8625 6.74996 0 -1 0
352 20 3 0.046089 14.237 15.7711 5.48842 0 -1 0
353 20 3 0.046089 12.891 14.89 4.79869 0 -1 0
354 20 4 0.121889 12.2907 17.573 6.34996 0 -1 0
355 20 4 0.121889 11.8474 18.6342 4.32756 0 -1 0
356 20 3 0.046089 11.5175 16.1077 2.90118 0 -1 0
357 20 3 0.046089 13.1605 16.6711 2.61572 0 -1 0
358 20 3 0.033922 10.6391 18.2869 1.7046 0 -1 0
359 20 3 0.033922 12.1294 19.0086 2.01836 0 -1 0
360 20 3 0.033922 12.0728 17.6766 0.838271 0 -1 0
361 21 1 -0.091211 -2.26537 2.82641 21.0489 0 0 0
362 21 1 -0.050311 -2.41688 2.17725 -0.29049 0 0 1
363 21 2 -0.174311 -0.946807 1.84266 0.163952 0 0 1
364 21 2 -0.174311 -0.656455 19.968 1.3186 0 -1 1
365 21 1 -0.050311 -1.61372 19.4384 2.34282 0 -1 1
366 21 1 -0.091211 -1.24827 18.0802 2.8264 0 -1 1
367 21 3 0.033922 -1.6567 3.73244 21.1216 0 0 0
368 21 3 0.033922 -3.19034 3.11283 20.54 0 0 0
369 21 3 0.033922 -1.80857 2.07328 20.4003 0 0 0
370 21 3 0.046089 -2.82706 2.99528 0.308843 0 0 1
371 21 3 0.046089 -3.03051 20.0529 -0.291264 0 -1 1
372 21 4 0.121889 -0.039517 2.16941 -0.334138 0 0 1
373 21 4 0.121889 0.386722 19.6686 1.33274 0 -1 1
374 21 3 0.046089 -2.60733 19.5076 1.89049 0 -1 1
375 21 3 0.046089 -1.48415 20.1311 3.1795 0 -1 1
376 21 3 0.033922 -0.224889 17.9803 3.1997 0 -1 1
377 21 3 0.033922 -1.95886 17.8158 3.61491 0 -1 1
378 21 3 0.033922 -1.44973 17.4198 1.97794 0 -1 1
379 22 1 -0.091211 4.84208 16.5614 14.3375 0 -1 0
380 22 1 -0.050311 5.79874 15.8382 15.2118 0 -1 0
381 22 2 -0.174311 6.84329 15.1225 14.379 0 -1 0
382 22 2 -0.174311 7.9491 14.2819 14.7626 0 -1 0
383 22 1 -0.050311 8.19907 13.8426 16.2004 0 -1 0
384 22 1 -0.091211 9.22702 12.7319 16.3854 0 -1 0
385 22 3 0.033922 3.93291 16.8999 14.843 0 -1 0
386 22 3 0.033922 4.43603 15.8954 13.5706 0 -1 0
387 22 3 0.033922 5.37959 17.3632 13.8228 0 -1 0
388 22 3 0.046089 6.32389 16.5639 15.8396 0 -1 0
389 22 3 0.046089 5.32322 15.1022 15.8666 0 -1 0
390 22 4 0.121889 6.90709 15.321 13.3139 0 -1 0
391 22 4 0.121889 8.65313 14.0778 13.9622 0 -1 0
392 22 3 0.046089 7.23921 13.5938 16.6623 0 -1 0
393 22 3 0.046089 8.578 14.7018 16.7616 0 -1 0
394 22 3 0.033922 9.30139 12.0962 15.4983 0 -1 0
395 22 3 0.033922 10.201 13.1944 16.5703 0 -1 0
396 22 3 0.033922 9.10956 12.0253 17.2122 0 -1 0
397 23 1 -0.091211 -0.549939 10.7653 4.65873 0 0 0
398 23 1 -0.050311 -1.76452 10.0967 3.96886 0 0 0
399 23 2 -0.174311 -2.06323 8.73158 4.56355 0 0 0
400 23 2 -0.174311 -3.26301 8.33865 5.07797 0 0 0
401 23 1 -0.050311 43.0916 9.31394 5.19563 -1 0 0
402 23 1 -0.091211 41.8125 8.57946 5.67711 -1 0 0
403 23 3 0.033922 0.273209 10.0573 4.52491 0 0 0
404 23 3 0.033922 -0.689243 11.0145 5.7147 0 0 0
405 23 3 0.033922 -0.270088 11.6182 4.03363 0 0 0
406 23 3 0.046089 -2.61189 10.7782 4.08822 0 0 0
407 23 3 0.046089 -1.65899 10.0471 2.8812 0 0 0
408 23 4 0.121889 -1.22753 8.03904 4.5587 0 0 0
409 23 4 0.121889 -3.34575 7.3778 5.57588 0 0 0
410 23 3 0.046089 42.9158 9.83918 4.25231 -1 0 0
411 23 3 0.046089 -4.12798 10.1041 5.90381 0 0 0
412 23 3 0.033922 41.8652 8.33627 6.74232 -1 0 0
413 23 3 0.033922 41.0156 9.32867 5.69193 -1 0 0
414 23 3 0.033922 41.567 7.67873 5.10697 -1 0 0
415 24 1 -0.091211 1.74848 14.3047 3.25369 0 0 0
416 24 1 -0.050311 2.90333 14.5882 2.29832 0 0 0
417 24 2 -0.174311 3.50316 15.909 2.50077 0 0 0
418 24 2 -0.174311 3.77344 16.8772 1.6154 0 0 0
419 24 1 -0.050311 3.46376 16.8598 0.0891469 0 0 0
420 24 1 -0.091211 2.0749 17.3854 -0.164945 0 0 0
421 24 3 0.033922 2.15462 14.2707 4.26883 0 0 0
422 24 3 0.033922 1.34845 13.3499 2.90027 0 0 0
423 24 3 0.033922 1.00726 15.1081 3.21158 0 0 0
424 24 3 0.046089 3.63837 13.7976 2.47519 0 0 0
425 24 3 0.046089 2.53481 14.5141 1.27103 0 0 0
426 24 4 0.121889 3.67203 16.0632 3.56177 0 0 0
427 24 4 0.121889 4.30845 17.7299 2.02119 0 0 0
428 24 3 0.046089 3.65086 15.8531 -0.29571 0 0 0
429 24 3 0.046089 4.16075 17.4657 -0.497177 0 0 0
430 24 3 0.033922 1.29804 17.0993 0.550092 0 0 0
431 24 3 0.033922 2.1624 18.4755 -0.188951 0 0 0
432 24 3 0.033922 1.73193 17.0249 21.5868 0 0 -1
433 25 1 -0.091211 0.847609 8.52627 17.8063 0 0 0
434 25 1 -0.050311 0.647499 7.14507 18.0777 0 0 0
435 25 2 -0.174311 1.96901 6.39965 17.9846 0 0 0
436 25 2 -0.174311 2.02314 5.14597 18.4828 0 0 0
437 25 1 -0.050311 0.963769 4.45432 19.2291 0 0 0
438 25 1 -0.091211 1.45658 3.03396 19.4299 0 0 0
439 25 3 0.033922 1.53632 9.00688 18.5072 0 0 0
440 25 3 0.033922 -0.116976 9.04022 17.7606 0 0 0
441 25 3 0.033922 1.13499 8.69378 16.7642 0 0 0
442 25 3 0.046089 0.191879 6.9383 19.0504 0 0 0
443 25 3 0.046089 -0.0167575 6.70853 17.3261 0 0 0
444 25 4 0.121889 2.79466 6.67271 17.3352 0 0 0
445 25 4 0.121889 2.96453 4.66573 18.2355 0 0 0
446 25 3 0.046089 -0.0159595 4.62119 18.772 0 0 0
447 25 3 0.046089 0.869132 5.03704 20.15 0 0 0
448 25 3 0.033922 2.34893 2.99047 20.0612 0 0 0
449 25 3 0.033922 0.713358 2.43954 19.9693 0 0 0
450 25 3 0.033922 1.74411 2.51826 18.5091 0 0 0
451 26 1 -0.091211 -0.193544 12.9585 21.6449 0 -1 0
452 26 1 -0.050311 -0.474409 13.3904 0.372554 0 -1 1
453 26 2 -0.174311 -1.62225 14.3959 0.473376 0 -1 1
454 26 2 -0.174311 -2.65633 14.2989 1.41117 0 -1 1
455 26 1 -0.050311 -2.59509 13.2868 2.56097 0 -1 1
456 26 1 -0.091211 -2.91463 13.8602 3.91805 0 -1 1
457 26 3 0.033922 -1.14798 12.7328 21.1604 0 -1 0
458 26 3 0.033922 0.481333 12.1019 21.5592 0 -1 0
459 26 3 0.033922 0.239744 13.7702 21.0532 0 -1 0
460 26 3 0.046089 -0.848126 12.4786 0.847472 0 -1 1
461 26 3 0.046089 0.443756 13.6952 0.883182 0 -1 1
462 26 4 0.121889 -1.64845 15.1409 -0.315514 0 -1 1
463 26 4 0.121889 -3.51451 14.9626 1.3791 0 -1 1
464 26 3 0.046089 -1.57499 12.8982 2.63178 0 -1 1
465 26 3 0.046089 -3.20981 12.4032 2.36604 0 -1 1
466 26 3 0.033922 -2.62507 13.2812 4.79981 0 -1 1
467 26 3 0.033922 -2.2522 14.7096 4.10865 0 -1 1
468 26 3 0.033922 -3.97297 14.1096 4.03805 0 -1 1
469 27 1 -0.091211 16.2238 14.8419 16.2055 0 0 -1
470 27 1 -0.050311 16.9967 14.4614 17.4889 0 0 -1
471 27 2 -0.174311 16.3307 14.8294 18.7913 0 0 -1
472 27 2 -0.174311 16.3299 14.0231 19.9157 0 0 -1
473 27 1 -0.050311 16.9088 12.6609 20.1807 0 0 -1
474 27 1 -0.091211 17.9997 12.917 21.2898 0 0 -1
475 27 3 0.033922 16.8053 14.4325 15.3743 0 0 -1
476 27 3 0.033922 16.1726 15.9331 16.1494 0 0 -1
477 27 3 0.033922 15.2104 14.4302 16.1899 0 0 -1
478 27 3 0.046089 17.1258 13.3752 17.4775 0 0 -1
479 27 3 0.046089 18.0031 14.8865 17.4327 0 0 -1
480 27 4 0.121889 15.5502 15.58 18.8653 0 0 -1
481 27 4 0.121889 15.842 14.328 20.836 0 0 -1
482 27 3 0.046089 17.5451 12.2971 19.3686 0 0 -1
483 27 3 0.046089 16.1306 11.9597 20.496 0 0 -1
484 27 3 0.033922 17.5731 13.5199 -0.629156 0 0 0
485 27 3 0.033922 18.242 11.977 21.7941 0 0 -1
486 27 3 0.033922 18.8498 13.3601 20.763 0 0 -1
487 28 1 -0.091211 5.14693 17.9256 19.0047 0 -1 -1
488 28 1 -0.050311 6.55976 17.4874 19.4379 0 -1 -1
489 28 2 -0.174311 7.09815 18.2733 20.654 0 -1 -1
490 28 2 -0.174311 7.41986 17.6842 21.8641 0 -1 -1
491 28 1 -0.050311 7.75372 16.2137 -0.616472 0 -1 0
492 28 1 -0.091211 8.73454 16.0932 0.516084 0 -1 0
493 28 3 0.033922 4.94512 17.2245 18.1896 0 -1 -1
494 28 3 0.033922 5.1943 18.9693 18.6804 0 -1 -1
495 28 3 0.033922 4.40531 17.7889 19.7972 0 -1 -1
496 28 3 0.046089 6.46083 16.4236 19.6727 0 -1 -1
497 28 3 0.046089 7.22537 17.5611 18.5729 0 -1 -1
498 28 4 0.121889 7.17908 19.3538 20.5918 0 -1 -1
499 28 4 0.121889 7.69602 18.389 -0.0839548 0 -1 0
500 28 3 0.046089 8.12286 15.7081 21.2124 0 -1 -1
501 28 3 0.046089 6.77089 15.7854 -0.398996 0 -1 0
502 28 3 0.033922 9.15362 15.0829 0.527916 0 -1 0
503 28 3 0.033922 9.49478 16.8797 0.529499 0 -1 0
504 28 3 0.033922 8.20077 16.2456 1.45868 0 -1 0
505 29 1 -0.091211 3.36819 9.71174 4.3532 0 0 0
506 29 1 -0.050311 3.61832 8.15597 4.14081 0 0 0
507 29 2 -0.174311 4.92047 8.05943 3.35997 0 0 0
508 29 2 -0.174311 5.50729 6.85548 3.13523 0 0 0
509 29 1 -0.050311 4.97079 5.51718 3.51155 0 0 0
510 29 1 -0.091211 5.74226 4.92356 4.74659 0 0 0
511 29 3 0.033922 3.23292 10.2632 3.41822 0 0 0
512 29 3 0.033922 4.26719 10.081 4.85526 0 0 0
513 29 3 0.033922 2.50811 9.89284 5.00443 0 0 0
514 29 3 0.046089 3.64762 7.66139 5.11607 0 0 0
515 29 3 0.046089 2.82053 7.76718 3.50126 0 0 0
516 29 4 0.121889 5.52025 8.95231 3.21493 0 0 0
517 29 4 0.121889 6.36832 6.91046 2.47672 0 0 0
518 29 3 0.046089 4.97122 4.82497 2.66452 0 0 0
519 29 3 0.046089 3.91684 5.6422 3.77655 0 0 0
520 29 3 0.033922 6.7642 4.76758 4.38887 0 0 0
521 29 3 0.033922 5.80527 5.67051 5.54328 0 0 0
522 29 3 0.033922 5.3628 3.95399 5.0821 0 0 0
523 30 1 -0.091211 4.78977 18.5188 6.06185 0 0 1
524 30 1 -0.050311 4.11407 19.7139 5.32212 0 0 1
525 30 2 -0.174311 3.15661 19.1186 4.40026 0 0 1
526 30 2 -0.174311 2.75562 19.5475 3.20214 0 0 1
527 30 1 -0.050311 2.96614 2.11661 2.56065 0 1 1
528 30 1 -0.091211 3.74982 1.97034 1.25959 0 1 1
529 30 3 0.033922 5.15403 17.844 5.28177 0 0 1
530 30 3 0.033922 4.07817 18.0527 6.74956 0 0 1
531 30 3 0.033922 5.6314 18.9414 6.61843 0 0 1
532 30 3 0.046089 3.59929 1.64435 5.97416 0 1 1
533 30 3 0.046089 4.88896 1.45658 4.75493 0 1 1
534 30 4 0.121889 2.62365 18.2088 4.65772 0 0 1
535 30 4 0.121889 2.13458 18.8515 2.64723 0 0 1
536 30 3 0.046089 3.54938 2.77978 3.20614 0 1 1
537 30 3 0.046089 2.00091 2.60506 2.39819 0 1 1
538 30 3 0.033922 4.21579 2.88919 0.891883 0 1 1
539 30 3 0.033922 4.56242 20.0368 1.41932 0 0 1
540 30 3 0.033922 3.0314 1.58917 0.528002 0 1 1
541 31 1 -0.091211 17.7527 17.9753 -0.0401768 0 0 1
542 31 1 -0.050311 18.6215 17.2221 21.6975 0 0 0
543 31 2 -0.174311 19.2889 18.3046 20.813 0 0 0
544 31 2 -0.174311 20.6467 18.2861 20.5768 0 0 0
545 31 1 -0.050311 21.67 17.2565 21.0494 0 0 0
546 31 1 -0.091211 22.9199 17.9617 21.6844 0 0 0
547 31 3 0.033922 16.8064 17.4745 0.184632 0 0 1
548 31 3 0.033922 17.5227 18.996 -0.359243 0 0 1
549 31 3 0.033922 18.3871 17.9693 0.850945 0 0 1
550 31 3 0.046089 19.3709 16.6017 -0.528344 0 0 1
551 31 3 0.046089 18.0495 16.6248 20.9815 0 0 0
552 31 4 0.121889 18.5906 18.9851 20.3363 0 0 0
553 31 4 0.121889 21.0349 19.1074 19.9829 0 0 0
554 31 3 0.046089 21.9664 16.5247 20.2922 0 0 0
555 31 3 0.046089 21.2484 16.549 21.7693 0 0 0
556 31 3 0.033922 23.5208 18.5222 20.9623 0 0 0
557 31 3 0.033922 22.6458 18.7305 -0.31327 0 0 1
558 31 3 0.033922 23.551 17.2546 22.2306 0 0 0
559 32 1 -0.091211 15.6208 18.7356 19.3111 0 0 -1
560 32 1 -0.050311 15.2454 19.9152 20.1044 0 0 -1
561 32 2 -0.174311 14.1547 19.5916 21.0653 0 0 -1
562 32 2 -0.174311 13.0924 1.67853 21.2801 0 1 -1
563 32 1 -0.050311 13.123 3.07452 20.7555 0 1 -1
564 32 1 -0.091211 12.3217 4.02236 21.5622 0 1 -1
565 32 3 0.033922 16.5443 18.789 18.7271 0 0 -1
566 32 3 0.033922 14.807 18.3864 18.6689 0 0 -1
567 32 3 0.033922 15.9286 17.8965 19.9418 0 0 -1
568 32 3 0.046089 16.0865 1.56575 20.6546 0 1 -1
569 32 3 0.046089 14.9402 1.93407 19.4237 0 1 -1
570 32 4 0.121889 14.2296 18.6286 21.5603 0 0 -1
571 32 4 0.121889 12.3544 20.1586 22.0168 0 0 -1
572 32 3 0.046089 12.662 3.0035 19.7661 0 1 -1
573 32 3 0.046089 14.1358 3.48032 20.6764 0 1 -1
574 32 3 0.033922 12.2975 4.99621 21.0646 0 1 -1
575 32 3 0.033922 11.2844 3.67546 21.5459 0 1 -1
576 32 3 0.033922 12.6562 4.1535 -0.130519 0 1 0
577 33 1 -0.091211 15.397 11.279 13.862 0 0 0
578 33 1 -0.050311 15.3858 9.85043 14.482 0 0 0
579 33 2 -0.174311 16.3643 8.90642 13.7852 0 0 0
580 33 2 -0.174311 17.7157 8.735 14.034 0 0 0
581 33 1 -0.050311 18.53 9.79367 14.7835 0 0 0
582 33 1 -0.091211 19.9432 9.40948 15.0364 0 0 0
583 33 3 0.033922 14.7351 11.2668 12.9912 0 0 0
584 33 3 0.033922 16.4592 11.4569 13.6701 0 0 0
585 33 3 0.033922 15.0604 11.9918 14.6204 0 0 0
586 33 3 0.046089 15.7647 10.0017 15.497 0 0 0
587 33 3 0.046089 14.4011 9.3762 14.4359 0 0 0
588 33 4 0.121889 15.9236 8.16703 13.1241 0 0 0
589 33 4 0.121889 18.2823 7.93745 13.564 0 0 0
590 33 3 0.046089 18.0826 10.044 15.7498 0 0 0
591 33 3 0.046089 18.5617 10.6788 14.1415 0 0 0
592 33 3 0.033922 19.9687 8.5648 15.731 0 0 0
593 33 3 0.033922 20.3787 9.01241 14.1149 0 0 0
594 33 3 0.033922 20.536 10.2601 15.3854 0 0 0
595 34 1 -0.091211 13.8362 19.7895 10.2707 0 0 0
596 34 1 -0.050311 15.1455 20.1344 9.50294 0 0 0
597 34 2 -0.174311 16.1699 1.47932 10.5802 0 1 0
598 34 2 -0.174311 17.0779 19.3075 11.0604 0 0 0
599 34 1 -0.050311 17.1482 17.8876 10.613 0 0 0
600 34 1 -0.091211 16.5408 16.9253 11.6431 0 0 0
601 34 3 0.033922 13.6194 1.60918 11.1587 0 1 0
602 34 3 0.033922 13.9973 18.7859 10.6748 0 0 0
603 34 3 0.033922 12.9962 19.7222 9.5732 0 0 0
604 34 3 0.046089 15.4663 19.3933 8.76505 0 0 0
605 34 3 0.046089 15.0705 2.29192 8.9464 0 1 0
606 34 4 0.121889 16.2137 2.4534 11.0569 0 1 0
607 34 4 0.121889 17.7251 19.4704 11.9163 0 0 0
608 34 3 0.046089 18.1321 17.4765 10.3689 0 0 0
609 34 3 0.046089 16.5769 17.7411 9.69172 0 0 0
610 34 3 0.033922 16.9812 17.0016 12.6415 0 0 0
611 34 3 0.033922 15.4951 17.1599 11.8625 0 0 0
612 34 3 0.033922 16.4467 15.8752 11.3512 0 0 0
613 35 1 -0.091211 37.191 14.4592 -0.564523 -1 0 1