ITEM: TIMESTEP
20000
ITEM: NUMBER OF ATOMS
1800
ITEM: BOX BOUNDS pp pp pp
-7.7871144331090747e-01 3.9586726943310623e+01
2.1473949700230577e-01 2.1393916002997962e+01
-2.3258392553659135e+00 2.3579572755366016e+01
ITEM: ATOMS id mol type q x y z ix iy iz
1 1 1 -0.091211 6.26513 17.5802 5.01569 0 -1 0
2 1 1 -0.050311 7.36926 18.5758 4.56083 0 -1 0
3 1 2 -0.174311 8.15158 18.8983 5.84236 0 -1 0
4 1 2 -0.174311 8.06858 20.1087 6.48168 0 -1 0
5 1 1 -0.050311 7.20637 21.3087 6.03511 0 -1 0
6 1 1 -0.091211 6.76171 1.06439 7.18314 0 0 0
7 1 3 0.033922 6.71534 16.6494 5.3727 0 -1 0
8 1 3 0.033922 5.57429 17.2948 4.21704 0 -1 0
9 1 3 0.033922 5.66762 17.9437 5.85676 0 -1 0
10 1 3 0.046089 8.0027 18.1638 3.76989 0 -1 0
11 1 3 0.046089 6.80373 19.4123 4.14012 0 -1 0
12 1 4 0.121889 8.91158 18.2634 6.28657 0 -1 0
13 1 4 0.121889 8.68276 20.2763 7.3607 0 -1 0
14 1 3 0.046089 6.25742 20.9473 5.62841 0 -1 0
15 1 3 0.046089 7.74531 0.740039 5.30474 0 0 0
16 1 3 0.033922 6.5307 2.02495 6.71354 0 0 0
17 1 3 0.033922 5.85921 0.614323 7.60683 0 0 0
18 1 3 0.033922 7.63405 1.25702 7.81442 0 0 0
19 2 1 -0.091211 4.78884 2.13054 16.8214 0 0 0
20 2 1 -0.050311 4.17401 3.23415 17.6983 0 0 0
21 2 2 -0.174311 5.18559 3.66569 18.781 0 0 0
22 2 2 -0.174311 6.12849 4.67529 18.5981 0 0 0
23 2 1 -0.050311 6.28423 5.45506 17.244 0 0 0
24 2 1 -0.091211 7.75876 5.82775 17.0066 0 0 0
25 2 3 0.033922 5.30488 1.35458 17.3942 0 0 0
26 2 3 0.033922 5.60952 2.53308 16.2205 0 0 0
27 2 3 0.033922 4.03194 1.73636 16.137 0 0 0
28 2 3 0.046089 3.88239 4.15026 17.1766 0 0 0
29 2 3 0.046089 3.22271 2.81108 18.0339 0 0 0
30 2 4 0.121889 5.15809 3.12092 19.7194 0 0 0
31 2 4 0.121889 6.88286 4.75664 19.3742 0 0 0
32 2 3 0.046089 5.64466 6.33535 17.1317 0 0 0
33 2 3 0.046089 6.04742 4.79018 16.4082 0 0 0
34 2 3 0.033922 8.47235 5.00604 16.8964 0 0 0
35 2 3 0.033922 7.86946 6.4338 16.1027 0 0 0
36 2 3 0.033922 8.11109 6.49715 17.7968 0 0 0
37 3 1 -0.091211 0.139307 7.02782 7.18003 0 0 0
38 3 1 -0.050311 1.50714 7.20046 7.91165 0 0 0
39 3 2 -0.174311 1.4418 8.16136 9.09004 0 0 0
40 3 2 -0.174311 2.47431 8.56551 9.91489 0 0 0
41 3 1 -0.050311 3.92162 8.43087 9.5182 0 0 0
42 3 1 -0.091211 4.66886 9.6847 10.029 0 0 0
43 3 3 0.033922 -0.622594 6.59121 7.8323 0 0 0
44 3 3 0.033922 0.162391 6.34225 6.32795 0 0 0
45 3 3 0.033922 -0.180242 8.03092 6.88299 0 0 0
46 3 3 0.046089 1.94078 6.22626 8.15547 0 0 0
47 3 3 0.046089 2.15637 7.63776 7.14754 0 0 0
48 3 4 0.121889 0.491995 8.61117 9.36115 0 0 0
49 3 4 0.121889 2.36271 9.16274 10.8143 0 0 0
50 3 3 0.046089 3.79317 8.46056 8.43228 0 0 0
51 3 3 0.046089 4.42838 7.56324 9.95061 0 0 0
52 3 3 0.033922 5.64505 9.74349 9.53897 0 0 0
53 3 3 0.033922 4.06495 10.5564 9.76086 0 0 0
54 3 3 0.033922 4.80127 9.62424 11.1132 0 0 0
55 4 1 -0.091211 3.51038 3.82612 5.91462 0 0 0
56 4 1 -0.050311 4.56612 3.75631 4.79826 0 0 0
57 4 2 -0.174311 4.12976 2.85878 3.69383 0 0 0
58 4 2 -0.174311 4.91509 2.78876 2.47657 0 0 0
59 4 1 -0.050311 6.35105 3.34394 2.36338 0 0 0
60 4 1 -0.091211 7.18757 2.36187 1.46624 0 0 0
61 4 3 0.033922 2.59733 4.30878 5.55414 0 0 0
62 4 3 0.033922 3.95072 4.36893 6.75608 0 0 0
63 4 3 0.033922 3.10656 2.87549 6.27488 0 0 0
64 4 3 0.046089 4.84679 4.75219 4.44329 0 0 0
65 4 3 0.046089 5.46038 3.33969 5.27081 0 0 0
66 4 4 0.121889 3.18176 2.35789 3.52546 0 0 0
67 4 4 0.121889 4.56568 2.11803 1.69811 0 0 0
68 4 3 0.046089 6.78755 3.39405 3.36516 0 0 0
69 4 3 0.046089 6.33504 4.37166 1.98907 0 0 0
70 4 3 0.033922 8.24154 2.63731 1.36699 0 0 0
71 4 3 0.033922 7.10581 1.3547 1.88515 0 0 0
72 4 3 0.033922 6.72074 2.32112 0.477793 0 0 0
73 5 1 -0.091211 0.200933 2.50332 7.60047 0 0 0
74 5 1 -0.050311 39.3817 3.08033 6.81621 -1 0 0
75 5 2 -0.174311 38.3287 3.6009 7.69498 -1 0 0
76 5 2 -0.174311 37.2533 4.4141 7.21917 -1 0 0
77 5 1 -0.050311 37.1942 4.84642 5.76702 -1 0 0
78 5 1 -0.091211 35.7483 4.64324 5.252 -1 0 0
79 5 3 0.033922 0.683878 3.32413 8.13861 0 0 0
80 5 3 0.033922 1.03427 2.12399 7.00194 0 0 0
81 5 3 0.033922 -0.210388 1.73889 8.26609 0 0 0
82 5 3 0.046089 -0.614249 3.92012 6.22055 0 0 0
83 5 3 0.046089 38.917 2.32189 6.17948 -1 0 0
84 5 4 0.121889 38.4238 3.26323 8.72208 -1 0 0
85 5 4 0.121889 36.5204 4.67897 7.97462 -1 0 0
86 5 3 0.046089 37.9536 4.37384 5.13722 -1 0 0
87 5 3 0.046089 37.4497 5.9064 5.67932 -1 0 0
88 5 3 0.033922 35.6307 4.96 4.21158 -1 0 0
89 5 3 0.033922 35.4577 3.59502 5.36765 -1 0 0
90 5 3 0.033922 35.0949 5.28033 5.85523 -1 0 0
91 6 1 -0.091211 13.5924 9.71235 22.3381 0 0 0
92 6 1 -0.050311 13.1017 8.35778 22.7006 0 0 0
93 6 2 -0.174311 13.5219 7.43426 21.6075 0 0 0
94 6 2 -0.174311 12.7583 6.94583 20.6249 0 0 0
95 6 1 -0.050311 11.3338 7.38452 20.3245 0 0 0
96 6 1 -0.091211 11.1481 7.41872 18.7613 0 0 0
97 6 3 0.033922 14.6746 9.69076 22.1805 0 0 0
98 6 3 0.033922 13.2408 10.4393 23.076 0 0 0
99 6 3 0.033922 13.1083 9.92465 21.3804 0 0 0
100 6 3 0.046089 13.4811 8.03147 -2.23204 0 0 1
101 6 3 0.046089 12.0216 8.51778 22.7658 0 0 0
102 6 4 0.121889 14.562 7.1278 21.6552 0 0 0
103 6 4 0.121889 13.1655 6.17859 19.9742 0 0 0
104 6 3 0.046089 11.188 8.39075 20.728 0 0 0
105 6 3 0.046089 10.6134 6.6767 20.7446 0 0 0
106 6 3 0.033922 10.3553 8.13606 18.5299 0 0 0
107 6 3 0.033922 12.106 7.7318 18.3358 0 0 0
108 6 3 0.033922 10.8021 6.44151 18.4121 0 0 0
109 7 1 -0.091211 38.0566 16.3287 9.78398 -1 0 0
110 7 1 -0.050311 37.4647 15.0788 8.99457 -1 0 0
111 7 2 -0.174311 37.1406 14.0684 10.0863 -1 0 0
112 7 2 -0.174311 37.3111 12.7623 9.81303 -1 0 0
113 7 1 -0.050311 37.8066 12.1881 8.50125 -1 0 0
114 7 1 -0.091211 36.664 11.7747 7.53399 -1 0 0
115 7 3 0.033922 38.7477 15.9935 10.5629 -1 0 0
116 7 3 0.033922 37.2571 16.9447 10.2057 -1 0 0
117 7 3 0.033922 38.6897 16.9656 9.15947 -1 0 0
118 7 3 0.046089 36.556 15.3387 8.44379 -1 0 0
119 7 3 0.046089 38.2051 14.7658 8.25269 -1 0 0
120 7 4 0.121889 36.7614 14.3673 11.0584 -1 0 0
121 7 4 0.121889 37.019 12.0003 10.5286 -1 0 0
122 7 3 0.046089 38.3068 11.2797 8.84919 -1 0 0
123 7 3 0.046089 38.5963 12.7634 8.00937 -1 0 0
124 7 3 0.033922 37.1124 11.2637 6.677 -1 0 0
125 7 3 0.033922 36.023 10.9938 7.95349 -1 0 0
126 7 3 0.033922 36.0413 12.6115 7.20486 -1 0 0
127 8 1 -0.091211 39.0759 8.614 14.0626 -1 0 0
128 8 1 -0.050311 0.0995357 8.0881 14.0619 0 0 0
129 8 2 -0.174311 0.00161054 6.5724 14.1422 0 0 0
130 8 2 -0.174311 0.580016 5.76599 15.1353 0 0 0
131 8 1 -0.050311 1.28643 6.40937 16.3932 0 0 0
132 8 1 -0.091211 1.16372 5.58098 17.7076 0 0 0
133 8 3 0.033922 38.4034 7.78027 14.2845 -1 0 0
134 8 3 0.033922 38.8046 9.02353 13.0852 -1 0 0
135 8 3 0.033922 38.9579 9.34734 14.8657 -1 0 0
136 8 3 0.046089 0.587977 8.44758 13.1515 0 0 0
137 8 3 0.046089 0.676002 8.63102 14.8165 0 0 0
138 8 4 0.121889 -0.568096 6.11037 13.3423 0 0 0
139 8 4 0.121889 0.290483 4.72276 15.0593 0 0 0
140 8 3 0.046089 0.841098 7.37869 16.6354 0 0 0
141 8 3 0.046089 2.3363 6.55654 16.1236 0 0 0
142 8 3 0.033922 1.57059 6.06522 18.6001 0 0 0
143 8 3 0.033922 0.0854606 5.51834 17.8808 0 0 0
144 8 3 0.033922 1.54058 4.55658 17.636 0 0 0
145 9 1 -0.091211 39.3093 3.66933 20.6345 -1 0 0
146 9 1 -0.050311 39.2597 4.5397 21.9716 -1 0 0
147 9 2 -0.174311 -0.123969 5.62575 21.6859 0 0 0
148 9 2 -0.174311 -0.46876 6.98698 21.6668 0 0 0
149 9 1 -0.050311 38.6507 7.59927 22.2006 -1 0 0
150 9 1 -0.091211 38.9418 9.04734 22.2386 -1 0 0
151 9 3 0.033922 39.1239 4.28151 19.7471 -1 0 0
152 9 3 0.033922 38.5839 2.85165 20.6768 -1 0 0
153 9 3 0.033922 -0.148362 3.09784 20.4202 0 0 0
154 9 3 0.046089 38.2427 4.88093 22.186 -1 0 0
155 9 3 0.046089 39.6181 3.98037 22.8407 -1 0 0
156 9 4 0.121889 0.873526 5.3508 21.3582 0 0 0
157 9 4 0.121889 0.301641 7.6415 21.2718 0 0 0
158 9 3 0.046089 38.4489 7.23623 23.2126 -1 0 0
159 9 3 0.046089 37.8397 7.27838 21.5403 -1 0 0
160 9 3 0.033922 -0.407371 9.26729 22.5782 0 0 0
161 9 3 0.033922 38.7597 9.49872 21.2589 -1 0 0
162 9 3 0.033922 38.3122 9.56443 22.9686 -1 0 0
163 10 1 -0.091211 7.45077 10.8539 6.14968 0 0 1
164 10 1 -0.050311 7.14592 9.92426 5.08128 0 0 1
165 10 2 -0.174311 6.47962 8.77583 5.70003 0 0 1
166 10 2 -0.174311 5.57639 7.91823 5.00697 0 0 1
167 10 1 -0.050311 4.95041 8.15209 3.69242 0 0 1
168 10 1 -0.091211 5.33522 7.13165 2.57806 0 0 1
169 10 3 0.033922 6.52904 11.2825 6.55375 0 0 1
170 10 3 0.033922 8.00272 11.7101 5.75117 0 0 1
171 10 3 0.033922 7.91862 10.4653 7.05891 0 0 1
172 10 3 0.046089 6.52726 10.3681 4.29589 0 0 1
173 10 3 0.046089 8.10323 9.62352 4.64574 0 0 1
174 10 4 0.121889 6.93138 8.47843 6.64101 0 0 1
175 10 4 0.121889 5.52054 6.97898 5.54794 0 0 1
176 10 3 0.046089 5.03978 9.20399 3.40596 0 0 1
177 10 3 0.046089 3.87445 7.99484 3.81134 0 0 1
178 10 3 0.033922 5.19617 6.09148 2.8867 0 0 1
179 10 3 0.033922 4.7091 7.28852 1.6949 0 0 1
180 10 3 0.033922 6.37207 7.30121 2.27346 0 0 1
181 11 1 -0.091211 -0.485733 12.4528 1.39278 0 0 0
182 11 1 -0.050311 -0.21491 11.5313 2.54846 0 0 0
183 11 2 -0.174311 39.024 11.3265 3.41481 -1 0 0
184 11 2 -0.174311 38.4885 10.1168 3.85647 -1 0 0
185 11 1 -0.050311 38.7322 8.75735 3.25777 -1 0 0
186 11 1 -0.091211 37.4701 7.84228 3.4312 -1 0 0
187 11 3 0.033922 39.2151 11.8823 0.737464 -1 0 0
188 11 3 0.033922 0.387408 12.6632 0.768316 0 0 0
189 11 3 0.033922 39.4733 13.4044 1.74741 -1 0 0
190 11 3 0.046089 0.187165 10.585 2.17507 0 0 0
191 11 3 0.046089 0.656597 11.8774 3.11171 0 0 0
192 11 4 0.121889 38.6055 12.2449 3.81397 -1 0 0
193 11 4 0.121889 37.7741 10.2335 4.66518 -1 0 0
194 11 3 0.046089 39.5071 8.17168 3.76092 -1 0 0
195 11 3 0.046089 39.0007 8.79606 2.19803 -1 0 0
196 11 3 0.033922 37.586 6.78636 3.17013 -1 0 0
197 11 3 0.033922 37.1107 8.0389 4.44547 -1 0 0
198 11 3 0.033922 36.6361 8.18395 2.81134 -1 0 0
199 12 1 -0.091211 2.35703 10.9952 6.23485 0 0 0
200 12 1 -0.050311 2.23335 12.5685 6.49749 0 0 0
201 12 2 -0.174311 0.807079 12.941 6.33377 0 0 0
202 12 2 -0.174311 0.519486 14.2643 5.84139 0 0 0
203 12 1 -0.050311 1.5323 15.2943 5.56988 0 0 0
204 12 1 -0.091211 2.21856 15.118 4.22987 0 0 0
205 12 3 0.033922 1.5808 10.5561 5.60143 0 0 0
206 12 3 0.033922 2.34065 10.4568 7.18694 0 0 0
207 12 3 0.033922 3.34743 10.8423 5.79631 0 0 0
208 12 3 0.046089 2.59056 12.8492 7.49258 0 0 0
209 12 3 0.046089 2.98891 13.0178 5.8465 0 0 0
210 12 4 0.121889 0.0211462 12.1983 6.42691 0 0 0
211 12 4 0.121889 -0.518977 14.4677 5.60015 0 0 0
212 12 3 0.046089 2.19187 15.2075 6.43824 0 0 0
213 12 3 0.046089 1.01069 16.2506 5.66932 0 0 0
214 12 3 0.033922 2.56888 14.0821 4.25813 0 0 0
215 12 3 0.033922 1.49775 15.2335 3.41521 0 0 0
216 12 3 0.033922 3.00936 15.8579 4.07598 0 0 0
217 13 1 -0.091211 6.56495 15.3469 8.29236 0 0 0
218 13 1 -0.050311 5.22447 15.0108 7.70235 0 0 0
219 13 2 -0.174311 4.14525 15.9927 8.15204 0 0 0
220 13 2 -0.174311 3.14927 15.6238 9.02948 0 0 0
221 13 1 -0.050311 3.091 14.3032 9.80505 0 0 0
222 13 1 -0.091211 1.75016 14.0241 10.4291 0 0 0
223 13 3 0.033922 6.85822 16.3415 7.94413 0 0 0
224 13 3 0.033922 7.40158 14.7121 7.98644 0 0 0
225 13 3 0.033922 6.64678 15.2964 9.38203 0 0 0
226 13 3 0.046089 5.27632 14.9889 6.6099 0 0 0
227 13 3 0.046089 5.05006 13.9876 8.04755 0 0 0
228 13 4 0.121889 4.16367 17.0343 7.84739 0 0 0
229 13 4 0.121889 2.43457 16.3395 9.42303 0 0 0
230 13 3 0.046089 3.82783 14.4762 10.5948 0 0 0
231 13 3 0.046089 3.42151 13.3772 9.32561 0 0 0
232 13 3 0.033922 1.47862 14.8172 11.1319 0 0 0
233 13 3 0.033922 0.988561 13.875 9.65822 0 0 0
234 13 3 0.033922 1.82804 13.1145 11.0318 0 0 0
235 14 1 -0.091211 13.9766 10.765 15.4193 0 0 0
236 14 1 -0.050311 12.5461 11.13 15.0852 0 0 0
237 14 2 -0.174311 11.6108 10.0049 15.2821 0 0 0
238 14 2 -0.174311 10.2461 10.013 15.1952 0 0 0
239 14 1 -0.050311 9.34527 11.1915 14.876 0 0 0
240 14 1 -0.091211 8.96544 11.656 16.2062 0 0 0
241 14 3 0.033922 14.3147 10.01 14.7037 0 0 0
242 14 3 0.033922 13.9673 10.3248 16.4207 0 0 0
243 14 3 0.033922 14.6664 11.5961 15.2458 0 0 0
244 14 3 0.046089 12.3041 11.9656 15.7484 0 0 0
245 14 3 0.046089 12.4395 11.5436 14.0781 0 0 0
246 14 4 0.121889 12.0175 9.03034 15.5325 0 0 0
247 14 4 0.121889 9.789 9.06461 15.4589 0 0 0
248 14 3 0.046089 8.44768 10.954 14.2976 0 0 0
249 14 3 0.046089 9.88355 11.9993 14.3717 0 0 0
250 14 3 0.033922 8.26718 12.4819 16.0421 0 0 0
251 14 3 0.033922 8.37412 10.95 16.7965 0 0 0
252 14 3 0.033922 9.79654 11.9575 16.8504 0 0 0
253 15 1 -0.091211 6.1184 16.7532 15.5829 0 0 0
254 15 1 -0.050311 4.60016 17.0281 15.5979 0 0 0
255 15 2 -0.174311 3.86316 15.7145 15.4923 0 0 0
256 15 2 -0.174311 3.4999 14.8564 16.5171 0 0 0
257 15 1 -0.050311 3.66885 15.3292 17.8693 0 0 0
258 15 1 -0.091211 3.4353 14.1953 18.8132 0 0 0
259 15 3 0.033922 6.39469 16.4548 16.5985 0 0 0
260 15 3 0.033922 6.71955 17.6344 15.341 0 0 0
261 15 3 0.033922 6.28523 15.9341 14.8773 0 0 0
262 15 3 0.046089 4.41221 17.546 16.543 0 0 0
263 15 3 0.046089 4.29745 17.6042 14.7187 0 0 0
264 15 4 0.121889 3.40907 15.5299 14.524 0 0 0
265 15 4 0.121889 3.12094 13.8492 16.3761 0 0 0
266 15 3 0.046089 2.95911 16.1169 18.1383 0 0 0
267 15 3 0.046089 4.67104 15.7501 17.9917 0 0 0
268 15 3 0.033922 2.39904 14.0909 19.1476 0 0 0
269 15 3 0.033922 3.77107 13.2939 18.2923 0 0 0
270 15 3 0.033922 3.98671 14.2705 19.7549 0 0 0
271 16 1 -0.091211 13.5675 17.5323 4.02019 0 0 0
272 16 1 -0.050311 12.71 18.3002 5.06732 0 0 0
273 16 2 -0.174311 12.7937 19.8268 5.04192 0 0 0
274 16 2 -0.174311 12.044 20.7152 4.30293 0 0 0
275 16 1 -0.050311 10.8356 20.3407 3.38595 0 0 0
276 16 1 -0.091211 11.2894 20.7445 1.99167 0 0 0
277 16 3 0.033922 13.0367 17.3492 3.08134 0 0 0
278 16 3 0.033922 13.9191 16.5401 4.31755 0 0 0
279 16 3 0.033922 14.4411 18.1363 3.75856 0 0 0
280 16 3 0.046089 11.681 17.9778 4.88365 0 0 0
281 16 3 0.046089 12.9783 17.9473 6.06736 0 0 0
282 16 4 0.121889 13.4981 20.2307 5.76212 0 0 0
283 16 4 0.121889 12.2847 0.581344 4.46846 0 1 0
284 16 3 0.046089 9.90932 20.8735 3.61979 0 0 0
285 16 3 0.046089 10.6004 19.2731 3.34598 0 0 0
286 16 3 0.033922 10.5398 20.5659 1.21525 0 0 0
287 16 3 0.033922 11.4574 0.646167 1.97844 0 1 0
288 16 3 0.033922 12.1585 20.1525 1.69054 0 0 0
289 17 1 -0.091211 7.94127 17.8143 12.3885 0 0 0
290 17 1 -0.050311 7.91674 19.2901 12.0099 0 0 0
291 17 2 -0.174311 7.16565 19.5737 10.6792 0 0 0
292 17 2 -0.174311 5.96848 20.3062 10.6112 0 0 0
293 17 1 -0.050311 5.19191 20.7697 11.7929 0 0 0
294 17 1 -0.091211 3.77042 21.0594 11.2783 0 0 0
295 17 3 0.033922 7.00682 17.2947 12.1575 0 0 0
296 17 3 0.033922 8.17228 17.7029 13.4519 0 0 0
297 17 3 0.033922 8.76759 17.2624 11.9312 0 0 0
298 17 3 0.046089 7.42568 19.7472 12.8739 0 0 0
299 17 3 0.046089 8.9508 19.6303 11.9025 0 0 0
300 17 4 0.121889 7.61465 19.1323 9.79514 0 0 0
301 17 4 0.121889 5.63642 20.5682 9.61171 0 0 0
302 17 3 0.046089 5.5511 0.544776 12.1891 0 1 0
303 17 3 0.046089 5.20667 19.9484 12.5152 0 0 0
304 17 3 0.033922 3.19365 21.2002 12.197 0 0 0
305 17 3 0.033922 3.69924 0.685932 10.5419 0 1 0
306 17 3 0.033922 3.34439 20.2329 10.702 0 0 0
307 18 1 -0.091211 6.05095 18.2267 0.412743 0 0 1
308 18 1 -0.050311 4.74059 18.3571 1.15891 0 0 1
309 18 2 -0.174311 4.33899 19.7635 1.32096 0 0 1
310 18 2 -0.174311 3.30265 20.4157 0.763047 0 0 1
311 18 1 -0.050311 2.52711 19.8425 -0.359621 0 0 1
312 18 1 -0.091211 2.23953 20.8941 -1.40917 0 0 1
313 18 3 0.033922 6.86149 18.6733 0.995947 0 0 1
314 18 3 0.033922 6.00891 18.8406 -0.491625 0 0 1
315 18 3 0.033922 6.26135 17.2026 0.0909713 0 0 1
316 18 3 0.046089 4.03116 17.7087 0.636575 0 0 1
317 18 3 0.046089 4.80714 17.9001 2.15052 0 0 1
318 18 4 0.121889 4.96235 20.3095 2.0219 0 0 1
319 18 4 0.121889 3.04373 0.243479 1.07449 0 1 1
320 18 3 0.046089 1.61778 19.4321 0.0890322 0 0 1
321 18 3 0.046089 3.03215 18.9846 -0.812905 0 0 1
322 18 3 0.033922 1.64005 20.4077 -2.18417 0 0 1
323 18 3 0.033922 1.72354 0.590449 -1.00443 0 1 1
324 18 3 0.033922 3.18113 21.2732 -1.81695 0 0 1
325 19 1 -0.091211 16.9535 3.08166 -0.960325 0 0 0
326 19 1 -0.050311 16.1751 2.47082 -2.05206 0 0 0
327 19 2 -0.174311 16.9579 2.75913 22.6 0 0 -1
328 19 2 -0.174311 16.4472 3.10308 21.3541 0 0 -1
329 19 1 -0.050311 15.0045 3.52217 21.0585 0 0 -1
330 19 1 -0.091211 14.6635 3.24422 19.6194 0 0 -1
331 19 3 0.033922 17.8544 2.50361 -0.734932 0 0 0
332 19 3 0.033922 16.3462 3.11209 -0.0510046 0 0 0
333 19 3 0.033922 17.3153 4.09896 -1.13561 0 0 0
334 19 3 0.046089 16.0706 1.39799 -1.8659 0 0 0
335 19 3 0.046089 15.2014 2.95291 -2.17914 0 0 0
336 19 4 0.121889 18.0295 2.62482 22.7079 0 0 -1
337 19 4 0.121889 17.071 3.1897 20.4702 0 0 -1
338 19 3 0.046089 14.9172 4.59192 21.2696 0 0 -1
339 19 3 0.046089 14.3648 2.89286 21.6842 0 0 -1
340 19 3 0.033922 14.7167 2.17153 19.4119 0 0 -1
341 19 3 0.033922 13.6403 3.5828 19.4324 0 0 -1
342 19 3 0.033922 15.3735 3.71244 18.9315 0 0 -1
343 20 1 -0.091211 11.7462 2.88649 6.72072 0 0 0
344 20 1 -0.050311 11.096 1.77847 7.54609 0 0 0
345 20 2 -0.174311 11.8945 1.72458 8.86093 0 0 0
346 20 2 -0.174311 11.4486 1.49042 10.1646 0 0 0
347 20 1 -0.050311 9.92079 1.27806 10.3818 0 0 0
348 20 1 -0.091211 9.55993 1.54369 11.831 0 0 0
349 20 3 0.033922 11.3342 3.82796 7.0955 0 0 0
350 20 3 0.033922 11.4647 2.67736 5.68455 0 0 0
351 20 3 0.033922 12.8334 2.94908 6.82335 0 0 0
352 20 3 0.046089 10.0609 2.09794 7.69812 0 0 0
353 20 3 0.046089 11.174 0.83875 6.99165 0 0 0
354 20 4 0.121889 12.9666 1.86695 8.76993 0 0 0
355 20 4 0.121889 12.1237 1.50279 11.0143 0 0 0
356 20 3 0.046089 9.77107 21.4007 10.1411 0 -1 0
357 20 3 0.046089 9.28702 1.84025 9.68981 0 0 0
358 20 3 0.033922 8.48922 1.36232 11.9623 0 0 0
359 20 3 0.033922 10.2388 0.933872 12.4342 0 0 0
360 20 3 0.033922 9.69869 2.57778 12.1595 0 0 0
361 21 1 -0.091211 38.6529 20.2084 21.4608 -1 -1 0
362 21 1 -0.050311 -0.476277 20.6766 20.6591 0 -1 0
363 21 2 -0.174311 0.617513 19.7378 20.9561 0 -1 0
364 21 2 -0.174311 1.5787 19.4105 20.0194 0 -1 0
365 21 1 -0.050311 1.49584 19.6593 18.4983 0 -1 0
366 21 1 -0.091211 2.63104 20.662 18.2196 0 -1 0
367 21 3 0.033922 38.468 19.1428 21.2966 -1 -1 0
368 21 3 0.033922 37.7211 20.723 21.2087 -1 -1 0
369 21 3 0.033922 38.8222 20.3195 22.5358 -1 -1 0
370 21 3 0.046089 39.6584 20.7524 19.5925 -1 -1 0
371 21 3 0.046089 -0.173262 0.477785 21.038 0 0 0
372 21 4 0.121889 0.797985 19.3406 21.9499 0 -1 0
373 21 4 0.121889 2.49442 18.9296 20.3483 0 -1 0
374 21 3 0.046089 0.538927 19.9337 18.0449 0 -1 0
375 21 3 0.046089 1.63661 18.697 17.9976 0 -1 0
376 21 3 0.033922 2.72744 20.8345 17.1436 0 -1 0
377 21 3 0.033922 2.37811 0.400562 18.7584 0 0 0
378 21 3 0.033922 3.57234 20.3109 18.6522 0 -1 0
379 22 1 -0.091211 7.46941 19.5757 17.378 0 -1 0
380 22 1 -0.050311 8.20211 20.7102 18.1865 0 -1 0
381 22 2 -0.174311 8.47746 0.724628 17.3012 0 0 0
382 22 2 -0.174311 9.17227 1.88357 17.6007 0 0 0
383 22 1 -0.050311 9.76888 1.96611 18.9821 0 0 0
384 22 1 -0.091211 10.2516 3.34394 19.3971 0 0 0
385 22 3 0.033922 6.48661 19.9387 17.0635 0 -1 0
386 22 3 0.033922 7.29494 18.7331 18.0534 0 -1 0
387 22 3 0.033922 8.02116 19.2357 16.4968 0 -1 0
388 22 3 0.046089 7.60656 21.007 19.0548 0 -1 0
389 22 3 0.046089 9.16708 20.3607 18.5651 0 -1 0
390 22 4 0.121889 8.13998 0.700452 16.2699 0 0 0
391 22 4 0.121889 9.20823 2.7292 16.9213 0 0 0
392 22 3 0.046089 10.6902 1.37645 18.9857 0 0 0
393 22 3 0.046089 9.00532 1.65174 19.6996 0 0 0
394 22 3 0.033922 11.1144 3.6954 18.8238 0 0 0
395 22 3 0.033922 9.46318 4.04507 19.1083 0 0 0
396 22 3 0.033922 10.4931 3.36965 20.4637 0 0 0
397 23 1 -0.091211 9.84163 9.07798 0.0739218 0 0 0
398 23 1 -0.050311 9.29484 8.39937 1.31039 0 0 0
399 23 2 -0.174311 9.00918 6.94965 1.03197 0 0 0
400 23 2 -0.174311 8.78671 6.02587 2.07 0 0 0
401 23 1 -0.050311 8.58715 6.2552 3.48411 0 0 0
402 23 1 -0.091211 9.62819 5.44121 4.21239 0 0 0
403 23 3 0.033922 10.0589 10.1178 0.334811 0 0 0
404 23 3 0.033922 9.18529 8.99646 -0.797382 0 0 0
405 23 3 0.033922 10.7274 8.59914 -0.353449 0 0 0
406 23 3 0.046089 10.0988 8.38111 2.05196 0 0 0
407 23 3 0.046089 8.39206 8.91354 1.65271 0 0 0
408 23 4 0.121889 9.00068 6.60751 0.00199043 0 0 0
409 23 4 0.121889 8.71265 4.99835 1.72843 0 0 0
410 23 3 0.046089 7.56734 6.04253 3.81778 0 0 0
411 23 3 0.046089 8.77203 7.31352 3.68985 0 0 0
412 23 3 0.033922 9.58472 4.36004 4.05193 0 0 0
413 23 3 0.033922 10.6279 5.74507 3.88849 0 0 0
414 23 3 0.033922 9.52388 5.64107 5.28281 0 0 0
415 24 1 -0.091211 3.5209 13.4372 1.08809 0 0 0
416 24 1 -0.050311 4.93058 12.9021 1.29934 0 0 0
417 24 2 -0.174311 5.86197 14.0404 1.17924 0 0 0
418 24 2 -0.174311 7.03221 14.2281 1.83067 0 0 0
419 24 1 -0.050311 7.63037 13.3023 2.84213 0 0 0
420 24 1 -0.091211 8.58699 12.3873 2.07615 0 0 0
421 24 3 0.033922 3.20954 14.165 1.84307 0 0 0
422 24 3 0.033922 2.74079 12.6714 1.04925 0 0 0
423 24 3 0.033922 3.36238 13.7895 0.0646772 0 0 0
424 24 3 0.046089 4.93929 12.3326 2.23324 0 0 0
425 24 3 0.046089 5.22604 12.2688 0.457758 0 0 0
426 24 4 0.121889 5.55608 14.7724 0.438518 0 0 0
427 24 4 0.121889 7.58098 15.1187 1.54156 0 0 0
428 24 3 0.046089 6.84428 12.681 3.28107 0 0 0
429 24 3 0.046089 8.16426 13.9169 3.5727 0 0 0
430 24 3 0.033922 9.29361 11.876 2.73634 0 0 0
431 24 3 0.033922 7.9969 11.6441 1.53209 0 0 0
432 24 3 0.033922 9.11821 12.9818 1.32718 0 0 0
433 25 1 -0.091211 5.51604 5.90238 13.94 0 0 0
434 25 1 -0.050311 5.07659 6.67719 12.7257 0 0 0
435 25 2 -0.174311 3.61843 6.49272 12.67 0 0 0
436 25 2 -0.174311 3.04937 5.73919 11.7219 0 0 0
437 25 1 -0.050311 3.84552 4.7173 10.8903 0 0 0
438 25 1 -0.091211 2.80916 3.90572 10.0622 0 0 0
439 25 3 0.033922 5.10989 6.4363 14.804 0 0 0
440 25 3 0.033922 6.60275 5.83323 14.0441 0 0 0
441 25 3 0.033922 5.03724 4.92268 14.0266 0 0 0
442 25 3 0.046089 5.29362 7.74599 12.8101 0 0 0
443 25 3 0.046089 5.57674 6.43599 11.7832 0 0 0
444 25 4 0.121889 2.8845 7.08283 13.2096 0 0 0
445 25 4 0.121889 1.9986 5.88186 11.4907 0 0 0
446 25 3 0.046089 4.49459 4.20825 11.6087 0 0 0
447 25 3 0.046089 4.49874 5.3072 10.2407 0 0 0
448 25 3 0.033922 2.20636 4.61586 9.4887 0 0 0
449 25 3 0.033922 3.40739 3.30562 9.3704 0 0 0
450 25 3 0.033922 2.17808 3.28284 10.7028 0 0 0
451 26 1 -0.091211 -0.275531 1.06077 10.9403 0 0 0
452 26 1 -0.050311 -0.262976 0.549627 12.3854 0 0 0
453 26 2 -0.174311 0.603511 1.3724 13.2607 0 0 0
454 26 2 -0.174311 0.421476 1.47975 14.6268 0 0 0
455 26 1 -0.050311 -0.536945 0.719496 15.4936 0 0 0
456 26 1 -0.091211 39.0046 1.707 16.3335 -1 0 0
457 26 3 0.033922 -0.61178 2.10153 10.9227 0 0 0
458 26 3 0.033922 39.5221 0.395868 10.2829 -1 0 0
459 26 3 0.033922 0.738211 1.04291 10.5297 0 0 0
460 26 3 0.046089 39.0946 0.39897 12.783 -1 0 0
461 26 3 0.046089 0.165137 20.724 12.4465 0 -1 0
462 26 4 0.121889 1.42581 1.99425 12.9214 0 0 0
463 26 4 0.121889 1.14786 2.07799 15.1676 0 0 0
464 26 3 0.046089 0.0899696 21.2028 16.0587 0 -1 0
465 26 3 0.046089 39.1726 21.2256 14.9338 -1 -1 0
466 26 3 0.033922 38.2148 1.2589 16.9434 -1 0 0
467 26 3 0.033922 -0.641452 2.19851 16.9949 0 0 0
468 26 3 0.033922 38.4607 2.38732 15.6717 -1 0 0
469 27 1 -0.091211 20.9416 12.3184 13.8225 0 0 0
470 27 1 -0.050311 21.1825 11.1405 12.8979 0 0 0
471 27 2 -0.174311 21.6539 11.6974 11.647 0 0 0
472 27 2 -0.174311 20.9291 11.9615 10.533 0 0 0
473 27 1 -0.050311 19.4253 11.7155 10.5873 0 0 0
474 27 1 -0.091211 18.7439 12.5858 9.52022 0 0 0
475 27 3 0.033922 20.771 11.8586 14.8003 0 0 0
476 27 3 0.033922 20.0684 12.86 13.4475 0 0 0
477 27 3 0.033922 21.7156 13.0906 13.8567 0 0 0
478 27 3 0.046089 22.0457 10.6109 13.3116 0 0 0
479 27 3 0.046089 20.2727 10.5342 12.8631 0 0 0
480 27 4 0.121889 22.7346 11.6977 11.5471 0 0 0
481 27 4 0.121889 21.3422 12.2709 9.57821 0 0 0
482 27 3 0.046089 19.0168 12.1107 11.522 0 0 0
483 27 3 0.046089 19.1342 10.6675 10.4713 0 0 0
484 27 3 0.033922 19.0711 12.3032 8.51537 0 0 0
485 27 3 0.033922 17.6751 12.3835 9.63604 0 0 0
486 27 3 0.033922 18.7554 13.674 9.63048 0 0 0
487 28 1 -0.091211 8.43465 3.85681 22.5443 0 0 -1
488 28 1 -0.050311 7.7901 2.55809 22.5494 0 0 -1
489 28 2 -0.174311 8.45281 1.62496 -2.27962 0 0 0
490 28 2 -0.174311 7.91376 0.430939 -1.88355 0 0 0
491 28 1 -0.050311 6.76221 20.9488 23.3349 0 -1 -1
492 28 1 -0.091211 7.09686 19.7226 22.5327 0 -1 -1
493 28 3 0.033922 8.06398 4.47663 21.7227 0 0 -1
494 28 3 0.033922 9.52452 3.76931 22.5775 0 0 -1
495 28 3 0.033922 8.26005 4.54699 23.3748 0 0 -1
496 28 3 0.046089 6.81971 2.79271 22.9964 0 0 -1
497 28 3 0.046089 7.66678 2.13498 21.5482 0 0 -1
498 28 4 0.121889 9.33614 2.03258 -1.79842 0 0 0
499 28 4 0.121889 8.37887 21.0737 -1.0626 0 -1 0
500 28 3 0.046089 6.33744 0.523987 22.6663 0 0 -1
501 28 3 0.046089 6.02137 20.609 -1.8409 0 -1 0
502 28 3 0.033922 6.2748 19.4298 21.8731 0 -1 -1
503 28 3 0.033922 7.91784 19.881 21.8274 0 -1 -1
504 28 3 0.033922 7.28829 18.9325 23.2646 0 -1 -1
505 29 1 -0.091211 9.46986 6.3517 13.7013 0 0 0
506 29 1 -0.050311 9.33947 5.6447 12.3716 0 0 0
507 29 2 -0.174311 9.20775 6.70607 11.3152 0 0 0
508 29 2 -0.174311 8.59229 6.48423 10.1069 0 0 0
509 29 1 -0.050311 8.10106 5.20881 9.51708 0 0 0
510 29 1 -0.091211 8.84308 4.9562 8.22416 0 0 0
511 29 3 0.033922 8.70638 7.11224 13.889 0 0 0
512 29 3 0.033922 10.4535 6.80151 13.8646 0 0 0
513 29 3 0.033922 9.33733 5.60011 14.485 0 0 0
514 29 3 0.046089 10.2954 5.15842 12.1565 0 0 0
515 29 3 0.046089 8.56834 4.87389 12.2834 0 0 0
516 29 4 0.121889 9.50231 7.71488 11.5863 0 0 0
517 29 4 0.121889 8.37068 7.38968 9.55106 0 0 0
518 29 3 0.046089 7.05334 5.39928 9.26693 0 0 0
519 29 3 0.046089 8.21673 4.3228 10.1481 0 0 0
520 29 3 0.033922 9.91132 5.05536 8.43773 0 0 0
521 29 3 0.033922 8.65177 3.94936 7.84178 0 0 0
522 29 3 0.033922 8.55881 5.70539 7.47951 0 0 0
523 30 1 -0.091211 17.7052 12.8062 17.8517 0 0 0
524 30 1 -0.050311 17.0712 11.6831 18.6703 0 0 0
525 30 2 -0.174311 16.2447 12.3871 19.7593 0 0 0
526 30 2 -0.174311 14.8849 12.7501 19.597 0 0 0
527 30 1 -0.050311 13.9666 12.5195 18.4168 0 0 0
528 30 1 -0.091211 12.7722 13.4431 18.3436 0 0 0
529 30 3 0.033922 18.1521 12.4683 16.9122 0 0 0
530 30 3 0.033922 18.5157 13.3827 18.3072 0 0 0
531 30 3 0.033922 16.9674 13.5729 17.5978 0 0 0
532 30 3 0.046089 16.3842 11.1997 17.9696 0 0 0
533 30 3 0.046089 17.8023 10.99 19.0966 0 0 0
534 30 4 0.121889 16.7757 12.6626 20.6649 0 0 0
535 30 4 0.121889 14.425 13.2146 20.4635 0 0 0
536 30 3 0.046089 13.6957 11.4597 18.4177 0 0 0
537 30 3 0.046089 14.5544 12.7235 17.5171 0 0 0
538 30 3 0.033922 13.1296 14.467 18.4867 0 0 0
539 30 3 0.033922 12.3014 13.5003 17.3579 0 0 0
540 30 3 0.033922 12.1077 13.269 19.1949 0 0 0
541 31 1 -0.091211 19.8058 4.5113 14.3668 0 1 0
542 31 1 -0.050311 19.9088 3.02295 14.7613 0 1 0
543 31 2 -0.174311 21.3093 2.54102 14.4619 0 1 0
544 31 2 -0.174311 21.9063 1.48796 15.046 0 1 0
545 31 1 -0.050311 21.3036 0.60824 16.0833 0 1 0
546 31 1 -0.091211 21.5215 20.3719 15.68 0 0 0
547 31 3 0.033922 20.1854 4.57654 13.3429 0 1 0
548 31 3 0.033922 20.469 5.07207 15.0318 0 1 0
549 31 3 0.033922 18.7694 4.85733 14.4192 0 1 0
550 31 3 0.046089 19.6817 2.82324 15.8125 0 1 0
551 31 3 0.046089 19.1639 2.48049 14.1719 0 1 0
552 31 4 0.121889 21.9953 3.14914 13.8809 0 1 0
553 31 4 0.121889 22.849 1.13456 14.6405 0 1 0
554 31 3 0.046089 20.2135 0.692586 16.0498 0 1 0
555 31 3 0.046089 21.6622 0.856432 17.0865 0 1 0
556 31 3 0.033922 21.1984 20.0819 14.6759 0 0 0
557 31 3 0.033922 22.5608 20.07 15.839 0 0 0
558 31 3 0.033922 20.9936 19.7692 16.4246 0 0 0
559 32 1 -0.091211 16.4249 17.0763 6.27585 0 0 0
560 32 1 -0.050311 16.1207 18.4854 6.69641 0 0 0
561 32 2 -0.174311 16.1912 19.483 5.51855 0 0 0
562 32 2 -0.174311 15.8952 20.8445 5.6061 0 0 0
563 32 1 -0.050311 15.4375 0.356422 6.88102 0 1 0
564 32 1 -0.091211 16.4598 1.27639 7.58667 0 1 0
565 32 3 0.033922 17.3755 17.0821 5.73471 0 0 0
566 32 3 0.033922 15.6486 16.7259 5.58938 0 0 0
567 32 3 0.033922 16.5475 16.3715 7.10335 0 0 0
568 32 3 0.046089 15.1363 18.5689 7.1659 0 0 0
569 32 3 0.046089 16.9121 18.8046 7.3808 0 0 0
570 32 4 0.121889 16.5311 19.0957 4.56331 0 0 0
571 32 4 0.121889 15.9946 0.281088 4.71791 0 1 0
572 32 3 0.046089 15.2182 20.7351 7.59358 0 0 0
573 32 3 0.046089 14.5038 0.878853 6.65362 0 1 0
574 32 3 0.033922 15.9401 1.7792 8.40746 0 1 0
575 32 3 0.033922 17.3097 0.695708 7.95694 0 1 0
576 32 3 0.033922 16.8052 2.07899 6.92854 0 1 0
577 33 1 -0.091211 11.1132 14.025 7.22186 0 0 0
578 33 1 -0.050311 11.2845 15.5622 7.45426 0 0 0
579 33 2 -0.174311 12.5955 15.8497 8.21689 0 0 0
580 33 2 -0.174311 12.6816 16.3646 9.47621 0 0 0
581 33 1 -0.050311 11.6096 16.7167 10.422 0 0 0
582 33 1 -0.091211 11.8016 18.0131 11.2029 0 0 0
583 33 3 0.033922 11.0683 13.5358 8.19922 0 0 0
584 33 3 0.033922 11.9347 13.6962 6.57867 0 0 0
585 33 3 0.033922 10.1487 13.8375 6.74116 0 0 0
586 33 3 0.046089 11.4904 16.0575 6.50087 0 0 0
587 33 3 0.046089 10.299 15.9111 7.77605 0 0 0
588 33 4 0.121889 13.5527 15.9236 7.71069 0 0 0
589 33 4 0.121889 13.7119 16.4589 9.80408 0 0 0
590 33 3 0.046089 11.6032 15.8784 11.1247 0 0 0
591 33 3 0.046089 10.6908 16.8209 9.8376 0 0 0
592 33 3 0.033922 11.7195 18.8529 10.5069 0 0 0
593 33 3 0.033922 11.0357 18.0062 11.9839 0 0 0
594 33 3 0.033922 12.7546 18.0815 11.7356 0 0 0
595 34 1 -0.091211 20.7928 16.6159 12.5821 0 0 0
596 34 1 -0.050311 20.7296 16.9027 14.0717 0 0 0
597 34 2 -0.174311 22.0622 17.0929 14.6284 0 0 0
598 34 2 -0.174311 22.6678 16.4172 15.6747 0 0 0
599 34 1 -0.050311 21.8932 15.5918 16.7185 0 0 0
600 34 1 -0.091211 22.5084 15.6342 18.0822 0 0 0
601 34 3 0.033922 21.1156 17.5218 12.0608 0 0 0
602 34 3 0.033922 19.7956 16.34 12.2271 0 0 0
603 34 3 0.033922 21.5265 15.8621 12.2821 0 0 0
604 34 3 0.046089 20.1006 17.7803 14.2471 0 0 0
605 34 3 0.046089 20.2773 16.0716 14.6205 0 0 0
606 34 4 0.121889 22.6445 17.8162 14.0664 0 0 0
607 34 4 0.121889 23.7089 16.6789 15.8348 0 0 0
608 34 3 0.046089 21.6247 14.5946 16.3579 0 0 0
609 34 3 0.046089 20.9051 16.02 16.9104 0 0 0
610 34 3 0.033922 22.6214 16.6404 18.4961 0 0 0
611 34 3 0.033922 21.859 15.1072 18.7873 0 0 0
612 34 3 0.033922 23.5359 15.2589 18.082 0 0 0
613 35 1 -0.091211 -0.22142 10.3956 18.0636 0 0 0
614 35 1 -0.050311 0.561172 10.9674 19.2336 0 0 0
615 35 2 -0.174311 2.02907 11.0302 18.9563 0 0 0
616 35 2 -0.174311 3.08064 10.8228 19.9027 0 0 0
617 35 1 -0.050311 2.96277 10.3305 21.331 0 0 0
618 35 1 -0.091211 3.90564 10.9425 22.3182 0 0 0