ITEM: TIMESTEP
81600
ITEM: NUMBER OF ATOMS
1800
ITEM: BOX BOUNDS pp pp pp
-4.7020940305554610e+00 4.3510109530554402e+01
1.6263782580237436e+00 1.9982277241976693e+01
-8.8174385588577664e-01 2.2135477355885296e+01
ITEM: ATOMS id mol type q x y z ix iy iz
1 1 1 -0.091211 7.48327 10.3163 15.0871 0 -1 0
2 1 1 -0.050311 6.93759 10.6562 13.695 0 -1 0
3 1 2 -0.174311 7.36498 9.56506 12.6948 0 -1 0
4 1 2 -0.174311 7.21834 9.66816 11.335 0 -1 0
5 1 1 -0.050311 6.56365 10.9094 10.718 0 -1 0
6 1 1 -0.091211 5.09606 10.7119 10.4844 0 -1 0
7 1 3 0.033922 6.86907 9.54356 15.5585 0 -1 0
8 1 3 0.033922 7.46684 11.2397 15.6735 0 -1 0
9 1 3 0.033922 8.53695 10.0247 15.0503 0 -1 0
10 1 3 0.046089 5.84569 10.7225 13.6908 0 -1 0
11 1 3 0.046089 7.29685 11.6532 13.4237 0 -1 0
12 1 4 0.121889 7.80224 8.61974 13.0001 0 -1 0
13 1 4 0.121889 7.51531 8.8702 10.6619 0 -1 0
14 1 3 0.046089 7.09248 11.0126 9.76602 0 -1 0
15 1 3 0.046089 6.67872 11.8247 11.3059 0 -1 0
16 1 3 0.033922 4.63615 11.626 10.0976 0 -1 0
17 1 3 0.033922 4.93523 9.94535 9.72082 0 -1 0
18 1 3 0.033922 4.54903 10.4463 11.3937 0 -1 0
19 2 1 -0.091211 2.64041 4.12734 8.81984 0 0 0
20 2 1 -0.050311 4.08064 3.87098 9.14094 0 0 0
21 2 2 -0.174311 4.74193 5.01627 9.91338 0 0 0
22 2 2 -0.174311 5.95914 4.94705 10.5693 0 0 0
23 2 1 -0.050311 6.78484 3.6657 10.4534 0 0 0
24 2 1 -0.091211 8.26738 4.00789 10.253 0 0 0
25 2 3 0.033922 2.61585 4.80498 7.96145 0 0 0
26 2 3 0.033922 2.07974 4.61427 9.62308 0 0 0
27 2 3 0.033922 2.11485 3.2238 8.49723 0 0 0
28 2 3 0.046089 3.97715 2.99576 9.78897 0 0 0
29 2 3 0.046089 4.69184 3.7793 8.23836 0 0 0
30 2 4 0.121889 4.31326 6.01091 9.84266 0 0 0
31 2 4 0.121889 6.25437 5.78171 11.1972 0 0 0
32 2 3 0.046089 6.48669 3.07959 9.57922 0 0 0
33 2 3 0.046089 6.72637 3.04495 11.3522 0 0 0
34 2 3 0.033922 8.8462 3.11032 10.0163 0 0 0
35 2 3 0.033922 8.38275 4.68599 9.40241 0 0 0
36 2 3 0.033922 8.73084 4.51446 11.1046 0 0 0
37 3 1 -0.091211 2.5145 4.97542 14.1486 0 0 0
38 3 1 -0.050311 3.22704 3.76648 13.5489 0 0 0
39 3 2 -0.174311 2.31867 2.87718 12.83 0 0 0
40 3 2 -0.174311 2.64715 19.9591 12.4913 0 -1 0
41 3 1 -0.050311 4.06206 19.393 12.6235 0 -1 0
42 3 1 -0.091211 4.33924 18.2693 11.6986 0 -1 0
43 3 3 0.033922 1.86911 5.46672 13.4146 0 0 0
44 3 3 0.033922 3.31554 5.66104 14.44 0 0 0
45 3 3 0.033922 1.96604 4.63861 15.0331 0 0 0
46 3 3 0.046089 4.07936 4.08364 12.9409 0 0 0
47 3 3 0.046089 3.71355 3.20767 14.3537 0 0 0
48 3 4 0.121889 1.3179 3.18533 12.5444 0 0 0
49 3 4 0.121889 1.92208 19.4142 11.8951 0 -1 0
50 3 3 0.046089 4.12794 19.0482 13.6595 0 -1 0
51 3 3 0.046089 4.82311 1.81256 12.4964 0 0 0
52 3 3 0.033922 5.4167 18.0948 11.6259 0 -1 0
53 3 3 0.033922 3.79093 17.3756 12.0106 0 -1 0
54 3 3 0.033922 4.05841 18.5427 10.6773 0 -1 0
55 4 1 -0.091211 -0.361782 17.7386 14.4806 0 -1 0
56 4 1 -0.050311 -0.886585 19.0923 14.8604 0 -1 0
57 4 2 -0.174311 -0.51644 19.6125 16.2461 0 -1 0
58 4 2 -0.174311 0.630972 19.4403 16.9842 0 -1 0
59 4 1 -0.050311 1.95592 18.8408 16.5157 0 -1 0
60 4 1 -0.091211 3.07714 19.1651 17.5155 0 -1 0
61 4 3 0.033922 0.721766 17.7589 14.3317 0 -1 0
62 4 3 0.033922 -0.911028 17.3219 13.6313 0 -1 0
63 4 3 0.033922 -0.443777 17.1128 15.374 0 -1 0
64 4 3 0.046089 -0.522629 19.8261 14.1353 0 -1 0
65 4 3 0.046089 -1.97668 19.1439 14.785 0 -1 0
66 4 4 0.121889 -1.40434 1.62913 16.747 0 0 0
67 4 4 0.121889 0.795622 19.8895 17.9584 0 -1 0
68 4 3 0.046089 2.24159 19.2817 15.5562 0 -1 0
69 4 3 0.046089 2.01444 17.76 16.3571 0 -1 0
70 4 3 0.033922 3.02171 18.5405 18.4118 0 -1 0
71 4 3 0.033922 4.0346 18.9909 17.016 0 -1 0
72 4 3 0.033922 3.00736 1.84785 17.8518 0 0 0
73 5 1 -0.091211 -3.29143 7.82488 10.0653 0 0 0
74 5 1 -0.050311 -4.66998 7.88626 9.36891 0 0 0
75 5 2 -0.174311 42.3687 8.45696 10.1376 -1 0 0
76 5 2 -0.174311 41.5119 9.42605 9.7372 -1 0 0
77 5 1 -0.050311 41.5906 10.1487 8.39998 -1 0 0
78 5 1 -0.091211 40.3956 9.66874 7.60876 -1 0 0
79 5 3 0.033922 -2.91602 8.80744 10.3658 0 0 0
80 5 3 0.033922 -2.63154 7.41014 9.29768 0 0 0
81 5 3 0.033922 -3.40168 7.22282 10.9719 0 0 0
82 5 3 0.046089 -4.47999 8.47006 8.46353 0 0 0
83 5 3 0.046089 43.2378 6.8876 9.04227 -1 0 0
84 5 4 0.121889 42.0664 7.93891 11.0422 -1 0 0
85 5 4 0.121889 40.6271 9.53741 10.3558 -1 0 0
86 5 3 0.046089 42.4867 9.93768 7.80918 -1 0 0
87 5 3 0.046089 41.5805 11.2349 8.52956 -1 0 0
88 5 3 0.033922 39.4488 9.93185 8.08934 -1 0 0
89 5 3 0.033922 40.3829 10.1833 6.64351 -1 0 0
90 5 3 0.033922 40.5715 8.60344 7.43304 -1 0 0
91 6 1 -0.091211 7.30835 5.40182 0.26504 0 0 1
92 6 1 -0.050311 7.14805 3.97319 -0.178798 0 0 1
93 6 2 -0.174311 5.7532 3.56703 -0.103404 0 0 1
94 6 2 -0.174311 4.96681 2.89151 21.9421 0 0 0
95 6 1 -0.050311 5.49507 2.55113 20.5918 0 0 0
96 6 1 -0.091211 5.84543 3.85523 19.8614 0 0 0
97 6 3 0.033922 8.3348 5.72588 0.460084 0 0 1
98 6 3 0.033922 6.80402 5.52041 1.22847 0 0 1
99 6 3 0.033922 6.86002 6.01583 -0.521492 0 0 1
100 6 3 0.046089 7.57153 3.70431 21.8663 0 0 0
101 6 3 0.046089 7.65858 3.36986 0.577505 0 0 1
102 6 4 0.121889 5.22816 3.72916 0.83257 0 0 1
103 6 4 0.121889 3.89159 2.77684 -0.981295 0 0 1
104 6 3 0.046089 4.74318 2.02213 19.999 0 0 0
105 6 3 0.046089 6.36815 1.89632 20.6668 0 0 0
106 6 3 0.033922 5.78075 3.59139 18.8018 0 0 0
107 6 3 0.033922 5.22466 4.71242 20.1381 0 0 0
108 6 3 0.033922 6.87501 4.19415 20.0089 0 0 0
109 7 1 -0.091211 32.4796 3.05171 18.8547 -1 1 -1
110 7 1 -0.050311 31.3986 4.14873 18.46 -1 1 -1
111 7 2 -0.174311 31.9565 5.05523 17.4351 -1 1 -1
112 7 2 -0.174311 32.0109 4.89884 16.0333 -1 1 -1
113 7 1 -0.050311 31.4649 3.64371 15.3228 -1 1 -1
114 7 1 -0.091211 30.2918 4.00007 14.4535 -1 1 -1
115 7 3 0.033922 33.3003 3.42473 19.4744 -1 1 -1
116 7 3 0.033922 32.989 2.65131 17.9734 -1 1 -1
117 7 3 0.033922 32.0094 2.20562 19.3644 -1 1 -1
118 7 3 0.046089 30.5506 3.56657 18.0877 -1 1 -1
119 7 3 0.046089 30.9412 4.76179 19.242 -1 1 -1
120 7 4 0.121889 32.2943 5.92072 17.9962 -1 1 -1
121 7 4 0.121889 32.5705 5.68435 15.5354 -1 1 -1
122 7 3 0.046089 31.1176 2.95101 16.095 -1 1 -1
123 7 3 0.046089 32.2921 3.25025 14.725 -1 1 -1
124 7 3 0.033922 30.462 4.81911 13.7486 -1 1 -1
125 7 3 0.033922 30.0907 3.16438 13.7769 -1 1 -1
126 7 3 0.033922 29.4695 4.34373 15.0877 -1 1 -1
127 8 1 -0.091211 -3.2824 5.84873 1.08131 0 0 1
128 8 1 -0.050311 -3.49597 6.82417 -0.0743383 0 0 1
129 8 2 -0.174311 43.3311 6.32975 -0.614156 -1 0 1
130 8 2 -0.174311 42.1744 7.01626 -0.357491 -1 0 1
131 8 1 -0.050311 41.875 8.21486 0.514144 -1 0 1
132 8 1 -0.091211 41.1774 7.71505 1.77713 -1 0 1
133 8 3 0.033922 -3.1587 4.86605 0.616837 0 0 1
134 8 3 0.033922 -4.1091 5.83634 1.79757 0 0 1
135 8 3 0.033922 -2.35054 6.02245 1.62728 0 0 1
136 8 3 0.046089 -3.41311 7.86842 0.240897 0 0 1
137 8 3 0.046089 -2.64657 6.77149 22.2556 0 0 0
138 8 4 0.121889 43.382 5.44214 21.7805 -1 0 0
139 8 4 0.121889 41.3563 6.50274 -0.852474 -1 0 1
140 8 3 0.046089 41.2824 8.94431 -0.0456671 -1 0 1
141 8 3 0.046089 42.7396 8.78631 0.864438 -1 0 1
142 8 3 0.033922 41.0253 8.56448 2.44942 -1 0 1
143 8 3 0.033922 40.1791 7.32583 1.55692 -1 0 1
144 8 3 0.033922 41.767 6.94482 2.28288 -1 0 1
145 9 1 -0.091211 33.5449 6.3855 21.4039 -1 1 0
146 9 1 -0.050311 34.5717 6.661 -0.578753 -1 1 1
147 9 2 -0.174311 34.4994 8.06813 -0.0815847 -1 1 1
148 9 2 -0.174311 34.6702 8.50219 1.22344 -1 1 1
149 9 1 -0.050311 35.0199 7.66423 2.40017 -1 1 1
150 9 1 -0.091211 36.4924 7.31447 2.37686 -1 1 1
151 9 3 0.033922 32.5001 6.52257 21.6976 -1 1 0
152 9 3 0.033922 33.6182 5.3429 21.081 -1 1 0
153 9 3 0.033922 33.7061 7.08094 20.5751 -1 1 0
154 9 3 0.046089 34.3964 5.9976 0.273186 -1 1 1
155 9 3 0.046089 35.5527 6.49796 21.9827 -1 1 0
156 9 4 0.121889 34.1412 8.65331 -0.9226 -1 1 1
157 9 4 0.121889 34.5969 9.56473 1.43252 -1 1 1
158 9 3 0.046089 34.4178 6.76118 2.53667 -1 1 1
159 9 3 0.046089 34.9282 8.31495 3.27469 -1 1 1
160 9 3 0.033922 37.088 8.02507 2.95736 -1 1 1
161 9 3 0.033922 36.6894 6.35705 2.86803 -1 1 1
162 9 3 0.033922 36.8612 7.1414 1.36166 -1 1 1
163 10 1 -0.091211 6.17911 7.886 7.89854 0 0 1
164 10 1 -0.050311 7.34078 7.05674 7.52071 0 0 1
165 10 2 -0.174311 7.95821 7.54138 6.15807 0 0 1
166 10 2 -0.174311 8.75793 6.70752 5.3916 0 0 1
167 10 1 -0.050311 9.25092 5.35181 5.80794 0 0 1
168 10 1 -0.091211 9.78333 4.6099 4.58283 0 0 1
169 10 3 0.033922 6.41264 8.94915 8.00754 0 0 1
170 10 3 0.033922 5.73667 7.55581 8.84291 0 0 1
171 10 3 0.033922 5.44401 7.74959 7.10002 0 0 1
172 10 3 0.046089 8.0874 6.95216 8.31334 0 0 1
173 10 3 0.046089 7.05645 6.01615 7.33896 0 0 1
174 10 4 0.121889 7.66945 8.53537 5.83147 0 0 1
175 10 4 0.121889 9.24657 7.13907 4.52385 0 0 1
176 10 3 0.046089 8.36103 4.85117 6.20051 0 0 1
177 10 3 0.046089 9.96442 5.37501 6.6368 0 0 1
178 10 3 0.033922 9.11699 4.63193 3.71558 0 0 1
179 10 3 0.033922 10.7243 5.01015 4.1943 0 0 1
180 10 3 0.033922 9.98841 3.54324 4.71275 0 0 1
181 11 1 -0.091211 -1.72764 15.0225 18.6188 0 0 0
182 11 1 -0.050311 -0.899504 16.2239 18.1664 0 0 0
183 11 2 -0.174311 -1.00352 17.2894 19.2184 0 0 0
184 11 2 -0.174311 -0.18025 17.4941 20.2614 0 0 0
185 11 1 -0.050311 1.08541 16.7694 20.4871 0 0 0
186 11 1 -0.091211 1.44505 16.6896 21.9763 0 0 0
187 11 3 0.033922 -1.05237 14.1708 18.4953 0 0 0
188 11 3 0.033922 -2.60225 14.9058 17.9722 0 0 0
189 11 3 0.033922 -2.0835 15.052 19.6527 0 0 0
190 11 3 0.046089 0.101095 15.9171 17.848 0 0 0
191 11 3 0.046089 -1.28681 16.6966 17.259 0 0 0
192 11 4 0.121889 -1.83035 17.9903 19.1628 0 0 0
193 11 4 0.121889 -0.350749 18.3262 20.9371 0 0 0
194 11 3 0.046089 1.8938 17.2982 19.9738 0 0 0
195 11 3 0.046089 1.11757 15.7705 20.0422 0 0 0
196 11 3 0.033922 0.692807 16.1775 -0.433837 0 0 1
197 11 3 0.033922 2.39329 16.2153 -0.771733 0 0 1
198 11 3 0.033922 1.47116 17.7359 -0.722662 0 0 1
199 12 1 -0.091211 2.91496 7.88099 12.1176 0 0 0
200 12 1 -0.050311 2.40973 8.63947 10.8691 0 0 0
201 12 2 -0.174311 1.04943 8.19999 10.4934 0 0 0
202 12 2 -0.174311 0.694577 7.97734 9.11698 0 0 0
203 12 1 -0.050311 1.72604 8.02079 8.0308 0 0 0
204 12 1 -0.091211 0.991753 7.88498 6.61151 0 0 0
205 12 3 0.033922 4.00735 7.90937 12.1679 0 0 0
206 12 3 0.033922 2.5789 6.85078 11.9678 0 0 0
207 12 3 0.033922 2.48259 8.25382 13.0507 0 0 0
208 12 3 0.046089 2.39406 9.69216 11.1663 0 0 0
209 12 3 0.046089 3.09476 8.48144 10.031 0 0 0
210 12 4 0.121889 0.287896 8.06679 11.2552 0 0 0
211 12 4 0.121889 -0.279594 7.51997 8.97611 0 0 0
212 12 3 0.046089 2.46582 7.23919 8.227 0 0 0
213 12 3 0.046089 2.24014 8.98374 8.10239 0 0 0
214 12 3 0.033922 0.714609 6.86854 6.317 0 0 0
215 12 3 0.033922 0.105143 8.52457 6.57259 0 0 0
216 12 3 0.033922 1.76006 8.2287 5.9128 0 0 0
217 13 1 -0.091211 -3.27444 11.7518 9.01294 0 0 1
218 13 1 -0.050311 -2.03286 12.6349 9.15632 0 0 1
219 13 2 -0.174311 -1.84442 13.0913 10.5501 0 0 1
220 13 2 -0.174311 -0.921798 12.8155 11.4831 0 0 1
221 13 1 -0.050311 0.195184 11.855 11.303 0 0 1
222 13 1 -0.091211 1.56991 12.4793 11.4343 0 0 1
223 13 3 0.033922 -3.30324 11.0476 9.84958 0 0 1
224 13 3 0.033922 -3.39153 11.1831 8.08582 0 0 1
225 13 3 0.033922 -4.14663 12.4108 9.05347 0 0 1
226 13 3 0.046089 -1.17258 12.0992 8.74442 0 0 1
227 13 3 0.046089 -2.06991 13.5124 8.50421 0 0 1
228 13 4 0.121889 -2.55862 13.8701 10.798 0 0 1
229 13 4 0.121889 -1.09875 13.1956 12.4842 0 0 1
230 13 3 0.046089 0.0827016 11.3565 10.3359 0 0 1
231 13 3 0.046089 0.160231 11.092 12.0861 0 0 1
232 13 3 0.033922 1.77453 12.8578 12.44 0 0 1
233 13 3 0.033922 2.36955 11.7625 11.2261 0 0 1
234 13 3 0.033922 1.70564 13.2862 10.7083 0 0 1
235 14 1 -0.091211 14.5103 11.6907 8.5521 0 0 0
236 14 1 -0.050311 14.846 10.8699 7.22887 0 0 0
237 14 2 -0.174311 13.9772 9.73932 6.90036 0 0 0
238 14 2 -0.174311 14.2087 8.83441 5.87359 0 0 0
239 14 1 -0.050311 15.452 8.84802 5.015 0 0 0
240 14 1 -0.091211 15.2738 8.68462 3.51697 0 0 0
241 14 3 0.033922 13.9117 11.09 9.24302 0 0 0
242 14 3 0.033922 13.8975 12.5846 8.40297 0 0 0
243 14 3 0.033922 15.4309 11.9206 9.09648 0 0 0
244 14 3 0.046089 14.9407 11.548 6.37569 0 0 0
245 14 3 0.046089 15.8183 10.3819 7.34326 0 0 0
246 14 4 0.121889 13.0001 9.65379 7.3652 0 0 0
247 14 4 0.121889 13.4933 8.02497 5.76841 0 0 0
248 14 3 0.046089 16.0681 8.00137 5.33157 0 0 0
249 14 3 0.046089 16.0796 9.72949 5.17541 0 0 0
250 14 3 0.033922 16.2613 8.74671 3.05044 0 0 0
251 14 3 0.033922 14.7112 7.78127 3.26375 0 0 0
252 14 3 0.033922 14.6566 9.48246 3.09368 0 0 0
253 15 1 -0.091211 4.24528 7.05381 21.4157 0 1 0
254 15 1 -0.050311 3.29849 7.75942 -0.640879 0 1 1
255 15 2 -0.174311 1.90832 7.14292 -0.643068 0 1 1
256 15 2 -0.174311 1.51859 6.04238 0.0867597 0 1 1
257 15 1 -0.050311 2.41292 5.15294 0.872133 0 1 1
258 15 1 -0.091211 1.65172 4.48073 2.02062 0 1 1
259 15 3 0.033922 4.22162 5.96326 21.4985 0 1 0
260 15 3 0.033922 5.28487 7.36344 21.5573 0 1 0
261 15 3 0.033922 3.89514 7.27021 20.4022 0 1 0
262 15 3 0.046089 3.82344 7.57808 0.301541 0 1 1
263 15 3 0.046089 3.2221 8.84159 22.2357 0 1 0
264 15 4 0.121889 1.13418 7.57598 21.7487 0 1 0
265 15 4 0.121889 0.519147 5.63047 -0.010658 0 1 1
266 15 3 0.046089 3.2853 5.76237 1.12552 0 1 1
267 15 3 0.046089 2.80573 4.32768 0.27105 0 1 1
268 15 3 0.033922 1.17971 5.27494 2.60636 0 1 1
269 15 3 0.033922 0.997789 3.64013 1.77073 0 1 1
270 15 3 0.033922 2.35858 4.03235 2.72486 0 1 1
271 16 1 -0.091211 11.5302 19.3784 7.93858 0 0 0
272 16 1 -0.050311 12.0339 2.26044 7.13057 0 1 0
273 16 2 -0.174311 13.5524 2.36077 7.20712 0 1 0
274 16 2 -0.174311 14.2587 3.11303 6.32711 0 1 0
275 16 1 -0.050311 13.6637 3.85439 5.12291 0 1 0
276 16 1 -0.091211 14.4788 5.17812 4.93689 0 1 0
277 16 3 0.033922 12.0089 19.3517 8.92178 0 0 0
278 16 3 0.033922 11.8272 18.4604 7.42311 0 0 0
279 16 3 0.033922 10.4684 19.3314 8.19761 0 0 0
280 16 3 0.046089 11.679 2.30811 6.09694 0 1 0
281 16 3 0.046089 11.6004 3.1684 7.55987 0 1 0
282 16 4 0.121889 14.0406 1.74392 7.95493 0 1 0
283 16 4 0.121889 15.3426 3.09063 6.37845 0 1 0
284 16 3 0.046089 12.5807 4.00749 5.11032 0 1 0
285 16 3 0.046089 13.938 3.22905 4.2683 0 1 0
286 16 3 0.033922 15.5537 4.98004 4.89208 0 1 0
287 16 3 0.033922 14.1279 5.60265 3.99176 0 1 0
288 16 3 0.033922 14.2361 5.95714 5.66549 0 1 0
289 17 1 -0.091211 11.6245 6.44706 9.96945 0 0 0
290 17 1 -0.050311 10.7175 7.55787 10.5638 0 0 0
291 17 2 -0.174311 10.6392 8.90923 9.78436 0 0 0
292 17 2 -0.174311 10.9431 10.1658 10.2842 0 0 0
293 17 1 -0.050311 11.3122 10.4885 11.686 0 0 0
294 17 1 -0.091211 10.5649 11.7918 12.1066 0 0 0
295 17 3 0.033922 11.2914 5.46255 10.3107 0 0 0
296 17 3 0.033922 12.6611 6.65473 10.2504 0 0 0
297 17 3 0.033922 11.5771 6.46346 8.87671 0 0 0
298 17 3 0.046089 9.67143 7.23782 10.5612 0 0 0
299 17 3 0.046089 10.9381 7.73929 11.6198 0 0 0
300 17 4 0.121889 10.3595 8.93019 8.73589 0 0 0
301 17 4 0.121889 10.9875 10.9667 9.55297 0 0 0
302 17 3 0.046089 12.3859 10.6446 11.8254 0 0 0
303 17 3 0.046089 11.0077 9.70488 12.3859 0 0 0
304 17 3 0.033922 11.016 12.6679 11.6315 0 0 0
305 17 3 0.033922 9.48849 11.7272 11.9229 0 0 0
306 17 3 0.033922 10.6745 11.9685 13.1805 0 0 0
307 18 1 -0.091211 33.4015 8.47003 15.5242 -1 0 1
308 18 1 -0.050311 33.5599 8.29087 14.0575 -1 0 1
309 18 2 -0.174311 32.7413 7.17244 13.5574 -1 0 1
310 18 2 -0.174311 33.3144 5.98907 13.1261 -1 0 1
311 18 1 -0.050311 34.7975 5.62391 13.3673 -1 0 1
312 18 1 -0.091211 35.0656 4.14268 13.0611 -1 0 1
313 18 3 0.033922 33.8582 9.44317 15.7269 -1 0 1
314 18 3 0.033922 33.9195 7.67328 16.066 -1 0 1
315 18 3 0.033922 32.3167 8.52571 15.654 -1 0 1
316 18 3 0.046089 33.1602 9.10417 13.4448 -1 0 1
317 18 3 0.046089 34.6301 8.12066 13.9076 -1 0 1
318 18 4 0.121889 31.6841 7.35434 13.3925 -1 0 1
319 18 4 0.121889 32.65 5.24822 12.6929 -1 0 1
320 18 3 0.046089 35.0582 5.91277 14.3897 -1 0 1
321 18 3 0.046089 35.4694 6.20844 12.7321 -1 0 1
322 18 3 0.033922 34.2097 3.53413 13.3674 -1 0 1
323 18 3 0.033922 35.1785 3.87468 12.0066 -1 0 1
324 18 3 0.033922 35.9379 3.76527 13.6028 -1 0 1
325 19 1 -0.091211 10.1017 9.01147 2.42089 0 0 0
326 19 1 -0.050311 9.47068 10.2287 1.67083 0 0 0
327 19 2 -0.174311 8.91179 9.6851 0.348907 0 0 0
328 19 2 -0.174311 7.93193 10.3732 -0.364704 0 0 0
329 19 1 -0.050311 7.23677 11.5706 0.188229 0 0 0
330 19 1 -0.091211 7.18627 12.6284 22.1049 0 0 -1
331 19 3 0.033922 10.3755 9.27696 3.44613 0 0 0
332 19 3 0.033922 11.0084 8.70772 1.8896 0 0 0
333 19 3 0.033922 9.43487 8.16073 2.58906 0 0 0
334 19 3 0.046089 8.66817 10.6103 2.30876 0 0 0
335 19 3 0.046089 10.2791 10.957 1.55901 0 0 0
336 19 4 0.121889 9.2223 8.73732 -0.0793147 0 0 0
337 19 4 0.121889 7.58796 9.84133 21.7711 0 0 -1
338 19 3 0.046089 7.72697 11.9143 1.10376 0 0 0
339 19 3 0.046089 6.25765 11.2208 0.528221 0 0 0
340 19 3 0.033922 6.70676 12.2956 21.1797 0 0 -1
341 19 3 0.033922 6.58161 13.4907 -0.616501 0 0 0
342 19 3 0.033922 8.16058 12.8897 21.6817 0 0 -1
343 20 1 -0.091211 14.3735 15.6236 5.61312 0 -1 0
344 20 1 -0.050311 13.3446 16.2111 4.72651 0 -1 0
345 20 2 -0.174311 13.7035 17.6692 4.44596 0 -1 0
346 20 2 -0.174311 12.8032 18.5526 3.82594 0 -1 0
347 20 1 -0.050311 11.4567 18.1394 3.28594 0 -1 0
348 20 1 -0.091211 10.8301 19.3308 2.54136 0 -1 0
349 20 3 0.033922 14.4258 16.2353 6.51848 0 -1 0
350 20 3 0.033922 15.3555 15.5914 5.13223 0 -1 0
351 20 3 0.033922 13.9503 14.6751 5.95647 0 -1 0
352 20 3 0.046089 13.3061 15.639 3.7949 0 -1 0
353 20 3 0.046089 12.3371 16.1598 5.14954 0 -1 0
354 20 4 0.121889 14.7139 17.9956 4.67076 0 -1 0
355 20 4 0.121889 13.269 19.5281 3.72872 0 -1 0
356 20 3 0.046089 10.7945 17.8244 4.0976 0 -1 0
357 20 3 0.046089 11.5841 17.2743 2.62871 0 -1 0
358 20 3 0.033922 10.9277 1.95015 3.02718 0 0 0
359 20 3 0.033922 11.2191 19.5128 1.53531 0 -1 0
360 20 3 0.033922 9.77088 19.1487 2.33731 0 -1 0
361 21 1 -0.091211 -2.61934 2.22443 20.168 0 0 0
362 21 1 -0.050311 -2.66211 19.6851 21.4666 0 -1 0
363 21 2 -0.174311 -1.59057 1.73987 -0.614682 0 0 1
364 21 2 -0.174311 -1.59274 19.8973 0.704372 0 -1 1
365 21 1 -0.050311 -2.67938 19.0547 1.36826 0 -1 1
366 21 1 -0.091211 -2.2625 18.5949 2.77658 0 -1 1
367 21 3 0.033922 -2.71934 3.25413 20.5235 0 0 0
368 21 3 0.033922 -3.44879 2.1161 19.4631 0 0 0
369 21 3 0.033922 -1.73707 2.09953 19.5334 0 0 0
370 21 3 0.046089 -3.59706 19.8326 22.015 0 -1 0
371 21 3 0.046089 -2.68702 18.6067 21.2847 0 -1 0
372 21 4 0.121889 -0.727952 2.2741 22.0171 0 0 0
373 21 4 0.121889 -0.798135 1.9283 1.33438 0 0 1
374 21 3 0.046089 -2.91535 18.1674 0.773582 0 -1 1
375 21 3 0.046089 -3.50439 19.7712 1.42007 0 -1 1
376 21 3 0.033922 -2.219 19.4079 3.50716 0 -1 1
377 21 3 0.033922 -2.91955 17.7812 3.09742 0 -1 1
378 21 3 0.033922 -1.28341 18.1274 2.63703 0 -1 1
379 22 1 -0.091211 5.01669 16.1483 15.2218 0 -1 0
380 22 1 -0.050311 5.57994 14.9023 15.8656 0 -1 0
381 22 2 -0.174311 6.80378 14.4503 15.0414 0 -1 0
382 22 2 -0.174311 8.12991 14.3008 15.3691 0 -1 0
383 22 1 -0.050311 8.76123 14.5276 16.7292 0 -1 0
384 22 1 -0.091211 9.09953 13.2202 17.4659 0 -1 0
385 22 3 0.033922 4.03213 16.4523 15.589 0 -1 0
386 22 3 0.033922 4.82462 15.9841 14.1575 0 -1 0
387 22 3 0.033922 5.7598 16.9497 15.175 0 -1 0
388 22 3 0.046089 5.7962 15.1589 16.9067 0 -1 0
389 22 3 0.046089 4.82165 14.1159 15.8074 0 -1 0
390 22 4 0.121889 6.70862 14.1993 13.9898 0 -1 0
391 22 4 0.121889 8.84061 14.1073 14.572 0 -1 0
392 22 3 0.046089 8.15396 15.1376 17.4043 0 -1 0
393 22 3 0.046089 9.67459 15.1281 16.6862 0 -1 0
394 22 3 0.033922 8.19366 12.62 17.5919 0 -1 0
395 22 3 0.033922 9.89914 12.7146 16.9167 0 -1 0
396 22 3 0.033922 9.51673 13.3985 18.4613 0 -1 0
397 23 1 -0.091211 0.215277 8.60951 2.76691 0 0 0
398 23 1 -0.050311 -1.0925 9.05925 3.53831 0 0 0
399 23 2 -0.174311 -1.73985 7.86056 4.08621 0 0 0
400 23 2 -0.174311 -3.08849 7.86046 4.2592 0 0 0
401 23 1 -0.050311 -3.88283 9.12621 4.17654 0 0 0
402 23 1 -0.091211 43.1027 8.95723 5.09829 -1 0 0
403 23 3 0.033922 0.52675 9.44027 2.127 0 0 0
404 23 3 0.033922 0.00360378 7.73475 2.14508 0 0 0
405 23 3 0.033922 1.06992 8.39092 3.41378 0 0 0
406 23 3 0.046089 -0.817832 9.76791 4.32508 0 0 0
407 23 3 0.046089 -1.76185 9.61621 2.87619 0 0 0
408 23 4 0.121889 -1.14355 6.95849 4.17983 0 0 0
409 23 4 0.121889 -3.60468 6.9973 4.66731 0 0 0
410 23 3 0.046089 -4.22244 9.2264 3.14154 0 0 0
411 23 3 0.046089 -3.32396 10.012 4.49242 0 0 0
412 23 3 0.033922 -4.89231 8.83174 6.16304 0 0 0
413 23 3 0.033922 42.6274 9.93609 4.98638 -1 0 0
414 23 3 0.033922 42.4701 8.21598 4.60131 -1 0 0
415 24 1 -0.091211 -0.657517 13.0287 4.75084 0 0 0
416 24 1 -0.050311 0.702376 13.0279 4.04364 0 0 0
417 24 2 -0.174311 1.29471 14.4124 4.21467 0 0 0
418 24 2 -0.174311 2.52293 14.8773 3.81057 0 0 0
419 24 1 -0.050311 3.54952 14.0436 3.09778 0 0 0
420 24 1 -0.091211 3.79845 14.5733 1.6636 0 0 0
421 24 3 0.033922 -0.528389 13.1239 5.83291 0 0 0
422 24 3 0.033922 -1.16373 12.1173 4.41948 0 0 0
423 24 3 0.033922 -1.31682 13.8741 4.53326 0 0 0
424 24 3 0.046089 1.40375 12.3698 4.56495 0 0 0
425 24 3 0.046089 0.648697 12.764 2.98341 0 0 0
426 24 4 0.121889 0.731611 15.1577 4.76738 0 0 0
427 24 4 0.121889 2.80476 15.9245 3.85461 0 0 0
428 24 3 0.046089 3.29363 12.9804 3.12761 0 0 0
429 24 3 0.046089 4.5252 14.1397 3.58302 0 0 0
430 24 3 0.033922 2.82957 14.5689 1.15577 0 0 0
431 24 3 0.033922 4.33436 15.5263 1.62723 0 0 0
432 24 3 0.033922 4.46775 13.8712 1.15791 0 0 0
433 25 1 -0.091211 0.67443 9.77322 17.2575 0 0 0
434 25 1 -0.050311 0.911253 8.53371 18.2116 0 0 0
435 25 2 -0.174311 0.66517 7.28396 17.3556 0 0 0
436 25 2 -0.174311 0.951637 5.9736 17.57 0 0 0
437 25 1 -0.050311 1.93983 5.44569 18.6053 0 0 0
438 25 1 -0.091211 1.33213 4.24635 19.4282 0 0 0
439 25 3 0.033922 1.39009 9.68461 16.435 0 0 0
440 25 3 0.033922 0.921521 10.6833 17.8119 0 0 0
441 25 3 0.033922 -0.37252 9.79626 16.9413 0 0 0
442 25 3 0.046089 1.98511 8.57999 18.4149 0 0 0
443 25 3 0.046089 0.293766 8.46376 19.1118 0 0 0
444 25 4 0.121889 0.0787506 7.41368 16.4516 0 0 0
445 25 4 0.121889 0.601403 5.3686 16.7397 0 0 0
446 25 3 0.046089 2.25254 6.28803 19.2292 0 0 0
447 25 3 0.046089 2.83189 5.01414 18.142 0 0 0
448 25 3 0.033922 0.841652 3.53182 18.7607 0 0 0
449 25 3 0.033922 2.12001 3.8418 20.0703 0 0 0
450 25 3 0.033922 0.591168 4.61389 20.1441 0 0 0
451 26 1 -0.091211 -1.65604 14.303 -0.415429 0 -1 1
452 26 1 -0.050311 -1.40309 14.1428 1.03337 0 -1 1
453 26 2 -0.174311 -2.57275 14.8311 1.70921 0 -1 1
454 26 2 -0.174311 -3.7126 14.1873 2.16631 0 -1 1
455 26 1 -0.050311 -3.9156 12.685 2.07246 0 -1 1
456 26 1 -0.091211 43.0146 12.3225 1.30811 -1 -1 1
457 26 3 0.033922 -2.65105 13.9222 -0.66353 0 -1 1
458 26 3 0.033922 -0.836271 13.8235 22.059 0 -1 0
459 26 3 0.033922 -1.5339 15.3516 -0.702466 0 -1 1
460 26 3 0.046089 -1.32712 13.0884 1.31469 0 -1 1
461 26 3 0.046089 -0.447512 14.6065 1.2951 0 -1 1
462 26 4 0.121889 -2.58594 15.9163 1.72576 0 -1 1
463 26 4 0.121889 -4.51552 14.8214 2.52861 0 -1 1
464 26 3 0.046089 -4.01779 12.3256 3.10055 0 -1 1
465 26 3 0.046089 -3.10036 12.1788 1.54729 0 -1 1
466 26 3 0.033922 42.9578 11.2333 1.22314 -1 -1 1
467 26 3 0.033922 42.0992 12.4948 1.88175 -1 -1 1
468 26 3 0.033922 43.0745 12.838 0.345184 -1 -1 1
469 27 1 -0.091211 15.5613 13.989 19.9657 0 0 -1
470 27 1 -0.050311 16.6481 14.8189 19.327 0 0 -1
471 27 2 -0.174311 17.0687 15.8037 20.4128 0 0 -1
472 27 2 -0.174311 18.2086 15.9246 21.0879 0 0 -1
473 27 1 -0.050311 19.3587 14.9164 20.8844 0 0 -1
474 27 1 -0.091211 19.3016 13.8109 21.955 0 0 -1
475 27 3 0.033922 15.4388 13.081 19.368 0 0 -1
476 27 3 0.033922 14.6496 14.5936 19.9607 0 0 -1
477 27 3 0.033922 15.8225 13.7513 21.001 0 0 -1
478 27 3 0.046089 17.4825 14.1537 19.0862 0 0 -1
479 27 3 0.046089 16.3279 15.3738 18.4403 0 0 -1
480 27 4 0.121889 16.3834 16.6097 20.655 0 0 -1
481 27 4 0.121889 18.4051 16.7572 21.7559 0 0 -1
482 27 3 0.046089 20.3075 15.4607 20.8674 0 0 -1
483 27 3 0.046089 19.3501 14.4489 19.8955 0 0 -1
484 27 3 0.033922 18.5694 13.007 21.8349 0 0 -1
485 27 3 0.033922 20.2069 13.1968 21.9675 0 0 -1
486 27 3 0.033922 19.0884 14.2185 -0.0697455 0 0 0
487 28 1 -0.091211 4.85856 17.4936 21.9935 0 -1 -1
488 28 1 -0.050311 6.04883 16.6248 -0.632446 0 -1 0
489 28 2 -0.174311 6.93241 16.5 21.1992 0 -1 -1
490 28 2 -0.174311 8.04531 17.2413 20.9315 0 -1 -1
491 28 1 -0.050311 8.59517 18.2458 21.8992 0 -1 -1
492 28 1 -0.091211 9.97787 18.7056 21.4025 0 -1 -1
493 28 3 0.033922 4.19115 17.5321 -0.157891 0 -1 0
494 28 3 0.033922 4.23028 17.0985 21.1899 0 -1 -1
495 28 3 0.033922 5.20637 18.5073 21.7741 0 -1 -1
496 28 3 0.046089 6.49718 16.9628 0.306361 0 -1 0
497 28 3 0.046089 5.53575 15.6625 -0.547081 0 -1 0
498 28 4 0.121889 6.68249 15.68 20.5336 0 -1 -1
499 28 4 0.121889 8.51737 17.0559 19.972 0 -1 -1
500 28 3 0.046089 8.68532 17.8091 -0.119149 0 -1 0
501 28 3 0.046089 7.97699 19.1381 22.0351 0 -1 -1
502 28 3 0.033922 10.3587 19.4779 22.0772 0 -1 -1
503 28 3 0.033922 10.6312 17.8359 21.5185 0 -1 -1
504 28 3 0.033922 9.99594 18.988 20.3458 0 -1 -1
505 29 1 -0.091211 5.12884 9.79984 3.15526 0 0 0
506 29 1 -0.050311 4.45222 8.54243 3.49069 0 0 0
507 29 2 -0.174311 5.40834 7.4057 3.65117 0 0 0
508 29 2 -0.174311 5.11351 6.23004 4.30651 0 0 0
509 29 1 -0.050311 3.78695 5.82041 4.99241 0 0 0
510 29 1 -0.091211 3.78791 4.29673 5.12809 0 0 0
511 29 3 0.033922 5.62417 9.57637 2.20589 0 0 0
512 29 3 0.033922 5.85486 10.0025 3.94801 0 0 0
513 29 3 0.033922 4.53083 10.7091 3.04405 0 0 0
514 29 3 0.046089 3.84184 8.65844 4.39102 0 0 0
515 29 3 0.046089 3.79733 8.34106 2.63793 0 0 0
516 29 4 0.121889 6.46189 7.5706 3.44902 0 0 0
517 29 4 0.121889 5.95205 5.55022 4.41938 0 0 0
518 29 3 0.046089 2.98565 6.11528 4.30858 0 0 0
519 29 3 0.046089 3.6772 6.33815 5.94976 0 0 0
520 29 3 0.033922 3.9323 3.84436 4.14263 0 0 0
521 29 3 0.033922 4.53184 3.98651 5.86765 0 0 0
522 29 3 0.033922 2.8224 4.02588 5.56521 0 0 0
523 30 1 -0.091211 3.21367 16.7666 7.80465 0 0 1
524 30 1 -0.050311 3.32798 17.8309 6.74144 0 0 1
525 30 2 -0.174311 2.05603 18.0234 6.03189 0 0 1
526 30 2 -0.174311 1.86796 18.5454 4.76631 0 0 1
527 30 1 -0.050311 2.88238 18.8686 3.73977 0 0 1
528 30 1 -0.091211 2.33647 18.8909 2.27651 0 0 1
529 30 3 0.033922 2.9013 15.7806 7.44837 0 0 1
530 30 3 0.033922 2.59352 17.0541 8.65869 0 0 1
531 30 3 0.033922 4.26309 16.6887 8.10348 0 0 1
532 30 3 0.046089 3.61543 18.8017 7.15566 0 0 1
533 30 3 0.046089 4.13096 17.5213 6.06616 0 0 1
534 30 4 0.121889 1.14259 17.8126 6.5789 0 0 1
535 30 4 0.121889 0.861762 18.8525 4.49925 0 0 1
536 30 3 0.046089 3.72543 18.1758 3.81682 0 0 1
537 30 3 0.046089 3.24494 19.8799 3.94589 0 0 1
538 30 3 0.033922 3.0783 19.0172 1.48256 0 0 1
539 30 3 0.033922 1.92163 17.8911 2.11864 0 0 1
540 30 3 0.033922 1.54051 19.6182 2.09134 0 0 1
541 31 1 -0.091211 18.285 19.713 0.811707 0 0 1
542 31 1 -0.050311 18.591 1.78996 -0.660663 0 1 1
543 31 2 -0.174311 20.0761 2.04272 -0.809557 0 1 1
544 31 2 -0.174311 20.9005 19.7586 21.3311 0 0 0
545 31 1 -0.050311 20.533 18.7352 20.217 0 0 0
546 31 1 -0.091211 21.8672 18.1437 19.6512 0 0 0
547 31 3 0.033922 17.1966 19.806 0.869113 0 0 1
548 31 3 0.033922 18.6725 2.07358 1.5419 0 1 1
549 31 3 0.033922 18.5241 18.6599 0.986502 0 0 1
550 31 3 0.046089 18.3747 19.2973 21.701 0 0 0
551 31 3 0.046089 18.0205 2.66749 22.0385 0 1 0
552 31 4 0.121889 20.4462 2.68364 -0.0156553 0 1 1
553 31 4 0.121889 21.9579 1.55024 21.5264 0 1 0
554 31 3 0.046089 19.9323 19.1328 19.3937 0 0 0
555 31 3 0.046089 19.896 17.9992 20.7162 0 0 0
556 31 3 0.033922 22.5144 18.9296 19.251 0 0 0
557 31 3 0.033922 22.4361 17.6308 20.4321 0 0 0
558 31 3 0.033922 21.6835 17.5137 18.7759 0 0 0
559 32 1 -0.091211 12.9304 2.02765 21.8502 0 1 -1
560 32 1 -0.050311 14.2303 2.80574 -0.77029 0 1 0
561 32 2 -0.174311 14.2689 2.97591 0.717271 0 1 0
562 32 2 -0.174311 13.6026 3.99251 1.34652 0 1 0
563 32 1 -0.050311 12.8473 5.02336 0.574136 0 1 0
564 32 1 -0.091211 11.5652 5.33662 1.30933 0 1 0
565 32 3 0.033922 12.8365 2.16432 20.769 0 1 -1
566 32 3 0.033922 12.0265 2.43318 -0.703071 0 1 0
567 32 3 0.033922 13.0421 19.3391 -0.861458 0 0 0
568 32 3 0.046089 15.1086 2.27614 21.8665 0 1 -1
569 32 3 0.046089 14.2719 3.81056 21.8165 0 1 -1
570 32 4 0.121889 14.857 2.28079 1.308 0 1 0
571 32 4 0.121889 13.755 3.99532 2.4211 0 1 0
572 32 3 0.046089 12.5907 4.81028 -0.467672 0 1 0
573 32 3 0.046089 13.4192 5.95477 0.619784 0 1 0
574 32 3 0.033922 11.1328 6.19645 0.789359 0 1 0
575 32 3 0.033922 10.9168 4.46126 1.20945 0 1 0
576 32 3 0.033922 11.7314 5.48162 2.38076 0 1 0
577 33 1 -0.091211 14.7403 12.5732 12.093 0 0 0
578 33 1 -0.050311 15.339 11.2814 12.6282 0 0 0
579 33 2 -0.174311 15.0826 11.2185 14.1834 0 0 0
580 33 2 -0.174311 15.0856 10.0692 14.9384 0 0 0
581 33 1 -0.050311 15.4683 8.74202 14.3834 0 0 0
582 33 1 -0.091211 16.4993 7.98907 15.2503 0 0 0
583 33 3 0.033922 15.1144 13.4721 12.5918 0 0 0
584 33 3 0.033922 13.6482 12.5138 12.1136 0 0 0
585 33 3 0.033922 14.9663 12.6539 11.0258 0 0 0
586 33 3 0.046089 14.8782 10.4555 12.0783 0 0 0
587 33 3 0.046089 16.4162 11.2152 12.4495 0 0 0
588 33 4 0.121889 14.8571 12.1612 14.672 0 0 0
589 33 4 0.121889 14.6311 10.1224 15.9226 0 0 0
590 33 3 0.046089 15.8527 8.87557 13.368 0 0 0
591 33 3 0.046089 14.5933 8.08773 14.3301 0 0 0
592 33 3 0.033922 17.4218 8.56349 15.1249 0 0 0
593 33 3 0.033922 16.3684 8.00226 16.3363 0 0 0
594 33 3 0.033922 16.5872 6.99233 14.8082 0 0 0
595 34 1 -0.091211 16.962 19.2455 9.23436 0 0 0
596 34 1 -0.050311 16.4711 17.8847 9.85526 0 0 0
597 34 2 -0.174311 15.4465 18.2611 10.9136 0 0 0
598 34 2 -0.174311 15.4464 17.5965 12.1286 0 0 0
599 34 1 -0.050311 16.4634 16.5628 12.5491 0 0 0
600 34 1 -0.091211 16.1981 16.0336 13.9656 0 0 0
601 34 3 0.033922 17.4107 19.9327 9.9575 0 0 0
602 34 3 0.033922 16.1037 19.7927 8.83355 0 0 0
603 34 3 0.033922 17.7602 19.1213 8.49677 0 0 0
604 34 3 0.046089 16.0425 17.1483 9.16925 0 0 0
605 34 3 0.046089 17.4419 17.5261 10.2095 0 0 0
606 34 4 0.121889 14.6365 18.8959 10.5685 0 0 0
607 34 4 0.121889 14.5213 17.7943 12.6606 0 0 0
608 34 3 0.046089 17.5045 16.8965 12.5858 0 0 0
609 34 3 0.046089 16.429 15.748 11.82 0 0 0
610 34 3 0.033922 16.3336 16.9101 14.6059 0 0 0
611 34 3 0.033922 15.1914 15.6056 13.971 0 0 0
612 34 3 0.033922 16.8751 15.1992 14.1708 0 0 0
613 35 1 -0.091211 36.628 15.5777 18.6416 -1 0 0
614 35 1 -0.050311 36.9273 14.4265 19.5388 -1 0 0