ITEM: TIMESTEP
79000
ITEM: NUMBER OF ATOMS
1800
ITEM: BOX BOUNDS pp pp pp
-4.7385511640964069e+00 4.3546566664095423e+01
1.4200998036637369e+00 2.0188555696336721e+01
-9.3282091075508511e-01 2.2186554410754646e+01
ITEM: ATOMS id mol type q x y z ix iy iz
1 1 1 -0.091211 2.92832 9.02344 14.3157 0 -1 0
2 1 1 -0.050311 3.62486 10.2206 13.648 0 -1 0
3 1 2 -0.174311 4.67231 9.65015 12.6832 0 -1 0
4 1 2 -0.174311 5.93229 10.1127 12.4288 0 -1 0
5 1 1 -0.050311 6.50429 11.3663 13.0419 0 -1 0
6 1 1 -0.091211 7.25716 12.094 11.9178 0 -1 0
7 1 3 0.033922 2.5195 8.37721 13.5335 0 -1 0
8 1 3 0.033922 2.18675 9.37696 15.038 0 -1 0
9 1 3 0.033922 3.63795 8.36218 14.8214 0 -1 0
10 1 3 0.046089 2.90811 10.8814 13.1519 0 -1 0
11 1 3 0.046089 4.0604 10.7984 14.4684 0 -1 0
12 1 4 0.121889 4.49089 8.7672 12.0786 0 -1 0
13 1 4 0.121889 6.57518 9.60958 11.7135 0 -1 0
14 1 3 0.046089 7.10993 11.1245 13.9202 0 -1 0
15 1 3 0.046089 5.80544 12.1212 13.4136 0 -1 0
16 1 3 0.033922 7.61875 13.0631 12.2736 0 -1 0
17 1 3 0.033922 8.09189 11.5026 11.5304 0 -1 0
18 1 3 0.033922 6.5485 12.3389 11.1213 0 -1 0
19 2 1 -0.091211 4.61232 6.27411 10.1235 0 0 0
20 2 1 -0.050311 6.15677 6.4147 10.1612 0 0 0
21 2 2 -0.174311 6.71218 5.81376 11.4882 0 0 0
22 2 2 -0.174311 8.02305 5.69738 11.7586 0 0 0
23 2 1 -0.050311 9.17818 6.11822 10.9207 0 0 0
24 2 1 -0.091211 10.5472 6.05001 11.5811 0 0 0
25 2 3 0.033922 4.18746 6.77955 10.9956 0 0 0
26 2 3 0.033922 4.38535 5.20728 10.2065 0 0 0
27 2 3 0.033922 4.19084 6.73964 9.22776 0 0 0
28 2 3 0.046089 6.57538 5.89165 9.29643 0 0 0
29 2 3 0.046089 6.4747 7.46133 10.1565 0 0 0
30 2 4 0.121889 5.97978 5.47109 12.2122 0 0 0
31 2 4 0.121889 8.214 5.11952 12.6573 0 0 0
32 2 3 0.046089 9.01917 7.13942 10.5624 0 0 0
33 2 3 0.046089 9.20975 5.49519 10.0221 0 0 0
34 2 3 0.033922 11.2208 6.84315 11.2438 0 0 0
35 2 3 0.033922 10.4128 6.21251 12.6545 0 0 0
36 2 3 0.033922 11.0045 5.09396 11.3103 0 0 0
37 3 1 -0.091211 1.49764 4.52079 12.123 0 0 0
38 3 1 -0.050311 1.41211 3.49622 10.9947 0 0 0
39 3 2 -0.174311 1.41116 2.0069 11.4605 0 0 0
40 3 2 -0.174311 2.60653 20.0224 11.6839 0 -1 0
41 3 1 -0.050311 4.0215 1.75803 11.7308 0 0 0
42 3 1 -0.091211 4.75265 1.74998 10.429 0 0 0
43 3 3 0.033922 0.64046 4.61814 12.7956 0 0 0
44 3 3 0.033922 1.67406 5.4964 11.6608 0 0 0
45 3 3 0.033922 2.43206 4.38495 12.6752 0 0 0
46 3 3 0.046089 0.495036 3.68143 10.4279 0 0 0
47 3 3 0.046089 2.24752 3.73974 10.3318 0 0 0
48 3 4 0.121889 0.448997 1.50483 11.4717 0 0 0
49 3 4 0.121889 2.46917 18.9924 11.997 0 -1 0
50 3 3 0.046089 4.54498 19.8815 12.4425 0 -1 0
51 3 3 0.046089 4.16655 2.73482 12.2013 0 0 0
52 3 3 0.033922 5.78938 2.07066 10.5666 0 0 0
53 3 3 0.033922 4.68046 19.5735 9.88262 0 -1 0
54 3 3 0.033922 4.2431 2.42912 9.73926 0 0 0
55 4 1 -0.091211 -1.7076 17.6928 11.3254 0 -1 0
56 4 1 -0.050311 -1.43047 18.3177 12.7007 0 -1 0
57 4 2 -0.174311 -0.101209 17.8499 13.1876 0 -1 0
58 4 2 -0.174311 0.58247 18.2422 14.3473 0 -1 0
59 4 1 -0.050311 0.0974881 19.2671 15.3673 0 -1 0
60 4 1 -0.091211 0.515843 18.792 16.7512 0 -1 0
61 4 3 0.033922 -1.0347 18.061 10.5455 0 -1 0
62 4 3 0.033922 -2.70275 18.0571 11.0543 0 -1 0
63 4 3 0.033922 -1.76826 16.6013 11.3641 0 -1 0
64 4 3 0.046089 -1.52039 19.4011 12.5801 0 -1 0
65 4 3 0.046089 -2.19863 17.8957 13.3553 0 -1 0
66 4 4 0.121889 0.374417 17.1079 12.5541 0 -1 0
67 4 4 0.121889 1.61816 17.9178 14.3385 0 -1 0
68 4 3 0.046089 -0.978638 19.4634 15.3659 0 -1 0
69 4 3 0.046089 0.550957 1.47177 15.1578 0 0 0
70 4 3 0.033922 1.59667 18.8492 16.9097 0 -1 0
71 4 3 0.033922 -0.024966 19.4194 17.4657 0 -1 0
72 4 3 0.033922 0.204804 17.77 16.9865 0 -1 0
73 5 1 -0.091211 -4.55665 10.523 8.37918 0 0 0
74 5 1 -0.050311 43.0638 10.3406 6.95472 -1 0 0
75 5 2 -0.174311 41.6014 10.1086 7.06796 -1 0 0
76 5 2 -0.174311 40.9855 9.15293 6.24903 -1 0 0
77 5 1 -0.050311 41.7773 8.16366 5.40361 -1 0 0
78 5 1 -0.091211 40.8844 6.95635 4.97162 -1 0 0
79 5 3 0.033922 43.0657 10.8178 9.19803 -1 0 0
80 5 3 0.033922 -3.76761 11.2609 8.20753 0 0 0
81 5 3 0.033922 -4.03808 9.60216 8.66136 0 0 0
82 5 3 0.046089 43.2669 11.2663 6.40846 -1 0 0
83 5 3 0.046089 -4.65974 9.54635 6.45426 0 0 0
84 5 4 0.121889 40.9359 10.6625 7.72238 -1 0 0
85 5 4 0.121889 39.9029 9.08609 6.28583 -1 0 0
86 5 3 0.046089 42.6237 7.72266 5.93821 -1 0 0
87 5 3 0.046089 42.1112 8.64328 4.47888 -1 0 0
88 5 3 0.033922 39.968 7.2248 4.438 -1 0 0
89 5 3 0.033922 41.4885 6.24214 4.40458 -1 0 0
90 5 3 0.033922 40.5238 6.50156 5.89886 -1 0 0
91 6 1 -0.091211 7.54564 1.90076 1.31356 0 0 1
92 6 1 -0.050311 7.7139 2.53412 -0.0292648 0 0 1
93 6 2 -0.174311 6.99351 1.84425 21.9959 0 0 0
94 6 2 -0.174311 7.29264 1.93897 20.6478 0 0 0
95 6 1 -0.050311 8.38977 2.80319 20.1747 0 0 0
96 6 1 -0.091211 7.96668 3.65864 18.9778 0 0 0
97 6 3 0.033922 8.2153 2.34403 2.05633 0 0 1
98 6 3 0.033922 7.75559 19.5958 1.29905 0 -1 1
99 6 3 0.033922 6.53953 2.05395 1.71467 0 0 1
100 6 3 0.046089 7.43162 3.58816 0.0472153 0 0 1
101 6 3 0.046089 8.7597 2.41946 -0.328832 0 0 1
102 6 4 0.121889 6.35766 19.7448 22.1387 0 -1 0
103 6 4 0.121889 6.84168 20.104 19.8664 0 -1 0
104 6 3 0.046089 9.13482 2.08663 19.8169 0 0 0
105 6 3 0.046089 8.90638 3.46819 20.8729 0 0 0
106 6 3 0.033922 8.81225 4.19819 18.5414 0 0 0
107 6 3 0.033922 7.43191 2.98026 18.3067 0 0 0
108 6 3 0.033922 7.33069 4.46174 19.3614 0 0 0
109 7 1 -0.091211 33.1843 1.66539 21.2162 -1 1 -1
110 7 1 -0.050311 33.7854 1.51118 19.8448 -1 1 -1
111 7 2 -0.174311 34.2909 2.80151 19.3109 -1 1 -1
112 7 2 -0.174311 33.976 3.34539 18.0713 -1 1 -1
113 7 1 -0.050311 33.0422 2.84897 16.9876 -1 1 -1
114 7 1 -0.091211 31.613 3.17111 17.3848 -1 1 -1
115 7 3 0.033922 32.281 2.2808 21.2594 -1 1 -1
116 7 3 0.033922 33.8467 2.17965 21.9186 -1 1 -1
117 7 3 0.033922 32.9579 19.4943 21.7285 -1 0 -1
118 7 3 0.046089 34.5573 19.5047 19.8496 -1 0 -1
119 7 3 0.046089 33.0147 19.9541 19.14 -1 0 -1
120 7 4 0.121889 34.955 3.28764 20.0184 -1 1 -1
121 7 4 0.121889 34.3843 4.29447 17.7388 -1 1 -1
122 7 3 0.046089 33.0457 1.77036 16.8056 -1 1 -1
123 7 3 0.046089 33.344 3.28364 16.0302 -1 1 -1
124 7 3 0.033922 31.4583 4.24265 17.541 -1 1 -1
125 7 3 0.033922 30.9482 2.76788 16.6154 -1 1 -1
126 7 3 0.033922 31.3253 2.74522 18.3505 -1 1 -1
127 8 1 -0.091211 43.4265 6.23167 21.7005 -1 0 0
128 8 1 -0.050311 42.694 7.41885 22.095 -1 0 0
129 8 2 -0.174311 41.5593 7.00608 -0.0748543 -1 0 1
130 8 2 -0.174311 40.8989 7.87399 0.798409 -1 0 1
131 8 1 -0.050311 41.1577 9.36842 0.914305 -1 0 1
132 8 1 -0.091211 39.9377 10.0056 1.61034 -1 0 1
133 8 3 0.033922 42.6973 5.47466 21.3977 -1 0 0
134 8 3 0.033922 -4.19054 5.88626 -0.624497 0 0 1
135 8 3 0.033922 -4.2143 6.42714 20.8384 0 0 0
136 8 3 0.046089 43.3362 8.16474 -0.547065 -1 0 1
137 8 3 0.046089 42.2086 7.83089 21.2054 -1 0 0
138 8 4 0.121889 41.2528 5.96595 -0.120342 -1 0 1
139 8 4 0.121889 40.0485 7.54654 1.38804 -1 0 1
140 8 3 0.046089 41.3777 9.85547 -0.0401811 -1 0 1
141 8 3 0.046089 42.0744 9.63405 1.44881 -1 0 1
142 8 3 0.033922 39.7598 11.0479 1.33014 -1 0 1
143 8 3 0.033922 39.0731 9.61378 1.06682 -1 0 1
144 8 3 0.033922 39.9342 9.76829 2.67822 -1 0 1
145 9 1 -0.091211 36.384 7.99513 21.5669 -1 1 0
146 9 1 -0.050311 36.3059 6.74458 -0.572974 -1 1 1
147 9 2 -0.174311 37.695 6.01185 -0.616111 -1 1 1
148 9 2 -0.174311 37.9725 4.73726 -0.228641 -1 1 1
149 9 1 -0.050311 37.0249 3.71335 0.317907 -1 1 1
150 9 1 -0.091211 37.5906 3.09634 1.65985 -1 1 1
151 9 3 0.033922 37.1366 8.68788 21.9546 -1 1 0
152 9 3 0.033922 35.3948 8.45114 21.4662 -1 1 0
153 9 3 0.033922 36.9026 7.70543 20.6483 -1 1 0
154 9 3 0.046089 36.0375 7.07408 0.435022 -1 1 1
155 9 3 0.046089 35.4814 6.10829 22.2119 -1 1 0
156 9 4 0.121889 38.4804 6.66902 -0.975705 -1 1 1
157 9 4 0.121889 39.0304 4.49963 -0.180172 -1 1 1
158 9 3 0.046089 36.7246 2.93417 -0.388705 -1 1 1
159 9 3 0.046089 36.0867 4.23608 0.525554 -1 1 1
160 9 3 0.033922 38.1888 3.78929 2.25859 -1 1 1
161 9 3 0.033922 36.7958 2.69767 2.29704 -1 1 1
162 9 3 0.033922 38.2034 2.23771 1.37039 -1 1 1
163 10 1 -0.091211 3.88919 9.79203 8.13983 0 0 1
164 10 1 -0.050311 5.37252 10.2641 8.40618 0 0 1
165 10 2 -0.174311 6.1548 10.5348 7.14231 0 0 1
166 10 2 -0.174311 7.19511 9.76214 6.72501 0 0 1
167 10 1 -0.050311 7.5801 8.46565 7.30909 0 0 1
168 10 1 -0.091211 8.6189 7.54991 6.58039 0 0 1
169 10 3 0.033922 3.27586 10.5858 7.70351 0 0 1
170 10 3 0.033922 3.4128 9.59628 9.10492 0 0 1
171 10 3 0.033922 3.82785 8.83744 7.60922 0 0 1
172 10 3 0.046089 5.41013 11.1407 9.0594 0 0 1
173 10 3 0.046089 5.87999 9.42929 8.89833 0 0 1
174 10 4 0.121889 6.03499 11.4511 6.5731 0 0 1
175 10 4 0.121889 7.81277 10.127 5.9105 0 0 1
176 10 3 0.046089 6.64087 7.93946 7.50286 0 0 1
177 10 3 0.046089 8.00094 8.66303 8.29934 0 0 1
178 10 3 0.033922 8.19819 7.29826 5.60246 0 0 1
179 10 3 0.033922 9.6052 8.00829 6.46345 0 0 1
180 10 3 0.033922 8.78487 6.62859 7.14625 0 0 1
181 11 1 -0.091211 -2.4369 14.2117 12.8273 0 0 0
182 11 1 -0.050311 -2.05497 14.5647 14.2786 0 0 0
183 11 2 -0.174311 -3.17128 14.4936 15.3156 0 0 0
184 11 2 -0.174311 -2.89511 14.5663 16.657 0 0 0
185 11 1 -0.050311 -1.5239 14.8789 17.2728 0 0 0
186 11 1 -0.091211 -0.864809 13.4922 17.4325 0 0 0
187 11 3 0.033922 -2.80476 13.1956 12.6573 0 0 0
188 11 3 0.033922 -1.55582 14.3264 12.1893 0 0 0
189 11 3 0.033922 -3.19688 14.9573 12.5765 0 0 0
190 11 3 0.046089 -1.26653 13.8554 14.5465 0 0 0
191 11 3 0.046089 -1.60314 15.5607 14.2567 0 0 0
192 11 4 0.121889 -4.21924 14.4497 15.0366 0 0 0
193 11 4 0.121889 -3.77546 14.7084 17.2757 0 0 0
194 11 3 0.046089 -1.62962 15.37 18.2446 0 0 0
195 11 3 0.046089 -0.867381 15.4325 16.5953 0 0 0
196 11 3 0.033922 -0.480675 13.0599 16.5039 0 0 0
197 11 3 0.033922 0.0307991 13.5376 18.0589 0 0 0
198 11 3 0.033922 -1.51206 12.7654 17.9319 0 0 0
199 12 1 -0.091211 0.636244 11.4043 10.7754 0 0 0
200 12 1 -0.050311 -0.0112463 10.259 10.0549 0 0 0
201 12 2 -0.174311 0.319143 8.89895 10.7095 0 0 0
202 12 2 -0.174311 0.0195052 7.70069 10.0799 0 0 0
203 12 1 -0.050311 -0.4651 7.56796 8.65849 0 0 0
204 12 1 -0.091211 -0.355852 6.07502 8.34483 0 0 0
205 12 3 0.033922 0.450621 12.3362 10.2334 0 0 0
206 12 3 0.033922 1.69256 11.1767 10.9456 0 0 0
207 12 3 0.033922 0.164683 11.5018 11.7576 0 0 0
208 12 3 0.046089 -1.09741 10.3868 10.0324 0 0 0
209 12 3 0.046089 0.202701 10.2962 8.98269 0 0 0
210 12 4 0.121889 0.680996 8.85526 11.7319 0 0 0
211 12 4 0.121889 0.239794 6.85453 10.7229 0 0 0
212 12 3 0.046089 0.15108 8.11475 7.93879 0 0 0
213 12 3 0.046089 -1.51896 7.85769 8.61343 0 0 0
214 12 3 0.033922 0.602161 5.58905 8.5513 0 0 0
215 12 3 0.033922 -1.13525 5.60879 8.95457 0 0 0
216 12 3 0.033922 -0.567759 5.85494 7.29443 0 0 0
217 13 1 -0.091211 -4.55909 14.098 7.3767 0 0 1
218 13 1 -0.050311 -3.98984 14.9029 8.5703 0 0 1
219 13 2 -0.174311 -3.34628 13.9342 9.49668 0 0 1
220 13 2 -0.174311 -1.99698 13.6338 9.35582 0 0 1
221 13 1 -0.050311 -0.957551 14.0937 8.38899 0 0 1
222 13 1 -0.091211 -0.0292335 14.9721 9.16268 0 0 1
223 13 3 0.033922 -3.90436 13.3166 6.97997 0 0 1
224 13 3 0.033922 43.4286 14.8524 6.64257 -1 0 1
225 13 3 0.033922 42.8065 13.593 7.68656 -1 0 1
226 13 3 0.046089 -3.3551 15.7469 8.28518 0 0 1
227 13 3 0.046089 43.4795 15.3818 9.11965 -1 0 1
228 13 4 0.121889 -3.88904 13.6748 10.4001 0 0 1
229 13 4 0.121889 -1.73035 12.9634 10.1667 0 0 1
230 13 3 0.046089 -1.40215 14.521 7.48541 0 0 1
231 13 3 0.046089 -0.452264 13.1629 8.11558 0 0 1
232 13 3 0.033922 0.791346 14.3565 9.54244 0 0 1
233 13 3 0.033922 0.382724 15.7015 8.45917 0 0 1
234 13 3 0.033922 -0.540391 15.4629 9.99604 0 0 1
235 14 1 -0.091211 17.8152 9.25521 10.1621 0 0 0
236 14 1 -0.050311 17.4506 9.77572 8.76151 0 0 0
237 14 2 -0.174311 15.9724 9.6986 8.47532 0 0 0
238 14 2 -0.174311 15.3426 10.247 7.36085 0 0 0
239 14 1 -0.050311 16.166 10.9596 6.25252 0 0 0
240 14 1 -0.091211 15.4783 10.6634 4.94038 0 0 0
241 14 3 0.033922 17.4486 8.2584 10.4239 0 0 0
242 14 3 0.033922 17.4838 9.88551 10.9925 0 0 0
243 14 3 0.033922 18.9035 9.20645 10.2619 0 0 0
244 14 3 0.046089 17.8594 10.7846 8.65355 0 0 0
245 14 3 0.046089 18.0919 9.27319 8.03153 0 0 0
246 14 4 0.121889 15.4036 9.01262 9.09489 0 0 0
247 14 4 0.121889 14.2798 10.0821 7.21574 0 0 0
248 14 3 0.046089 17.2029 10.6319 6.13339 0 0 0
249 14 3 0.046089 16.2357 12.0457 6.36209 0 0 0
250 14 3 0.033922 16.0225 11.1915 4.15197 0 0 0
251 14 3 0.033922 15.5634 9.58391 4.78563 0 0 0
252 14 3 0.033922 14.434 10.9887 4.95072 0 0 0
253 15 1 -0.091211 1.31987 5.40726 0.660696 0 1 1
254 15 1 -0.050311 0.878166 4.13073 1.30641 0 1 1
255 15 2 -0.174311 0.170975 3.17076 0.325914 0 1 1
256 15 2 -0.174311 0.738688 2.0919 -0.323106 0 1 1
257 15 1 -0.050311 2.16497 1.55955 -0.0997702 0 1 1
258 15 1 -0.091211 2.76731 19.5419 21.8762 0 0 0
259 15 3 0.033922 1.94037 5.18874 -0.21331 0 1 1
260 15 3 0.033922 1.8744 5.92064 1.45163 0 1 1
261 15 3 0.033922 0.462376 6.0187 0.365018 0 1 1
262 15 3 0.046089 1.78727 3.66509 1.69794 0 1 1
263 15 3 0.046089 0.194161 4.41456 2.11154 0 1 1
264 15 4 0.121889 -0.788953 3.46305 -0.0877207 0 1 1
265 15 4 0.121889 0.0934724 1.60107 22.0746 0 1 0
266 15 3 0.046089 2.32037 19.6898 0.774965 0 0 1
267 15 3 0.046089 2.70305 2.51163 -0.0762831 0 1 1
268 15 3 0.033922 2.408 18.5215 21.7147 0 0 0
269 15 3 0.033922 2.61578 20.0802 20.936 0 0 0
270 15 3 0.033922 3.84861 19.4647 22.0225 0 0 0
271 16 1 -0.091211 12.2627 3.65231 8.61846 0 1 0
272 16 1 -0.050311 12.2387 3.79902 7.1573 0 1 0
273 16 2 -0.174311 12.6088 5.20516 6.7661 0 1 0
274 16 2 -0.174311 12.4732 5.74781 5.50873 0 1 0
275 16 1 -0.050311 11.9753 4.95973 4.30139 0 1 0
276 16 1 -0.091211 10.482 5.21777 3.97467 0 1 0
277 16 3 0.033922 11.403 4.09065 9.13356 0 1 0
278 16 3 0.033922 13.1926 4.03137 9.05234 0 1 0
279 16 3 0.033922 12.1772 2.58097 8.82201 0 1 0
280 16 3 0.046089 13.0079 3.07241 6.87979 0 1 0
281 16 3 0.046089 11.2593 3.42903 6.84046 0 1 0
282 16 4 0.121889 12.9061 5.89661 7.54812 0 1 0
283 16 4 0.121889 12.8062 6.77675 5.41755 0 1 0
284 16 3 0.046089 12.0687 3.89187 4.51926 0 1 0
285 16 3 0.046089 12.5948 5.1961 3.43132 0 1 0
286 16 3 0.033922 10.5359 6.25644 3.63586 0 1 0
287 16 3 0.033922 10.214 4.60042 3.11231 0 1 0
288 16 3 0.033922 9.86076 5.03047 4.85539 0 1 0
289 17 1 -0.091211 10.8491 10.8251 8.50328 0 0 0
290 17 1 -0.050311 11.0883 9.63478 9.50911 0 0 0
291 17 2 -0.174311 12.3783 9.95128 10.2677 0 0 0
292 17 2 -0.174311 12.4375 10.1743 11.6465 0 0 0
293 17 1 -0.050311 11.3114 10.4544 12.5121 0 0 0
294 17 1 -0.091211 11.6517 10.6345 14.0228 0 0 0
295 17 3 0.033922 9.83909 10.8176 8.08337 0 0 0
296 17 3 0.033922 11.608 10.8755 7.71704 0 0 0
297 17 3 0.033922 10.9192 11.8251 8.94104 0 0 0
298 17 3 0.046089 10.3083 9.57392 10.2737 0 0 0
299 17 3 0.046089 11.1598 8.64906 9.04028 0 0 0
300 17 4 0.121889 13.2981 9.91953 9.69248 0 0 0
301 17 4 0.121889 13.4192 10.2743 12.0985 0 0 0
302 17 3 0.046089 10.7691 9.50599 12.5668 0 0 0
303 17 3 0.046089 10.6385 11.2447 12.1671 0 0 0
304 17 3 0.033922 12.1208 9.73416 14.4303 0 0 0
305 17 3 0.033922 12.2559 11.5437 14.0919 0 0 0
306 17 3 0.033922 10.7829 10.8063 14.6648 0 0 0
307 18 1 -0.091211 30.4739 7.79262 14.4038 -1 0 1
308 18 1 -0.050311 31.271 7.51087 13.1394 -1 0 1
309 18 2 -0.174311 32.6129 6.82784 13.4869 -1 0 1
310 18 2 -0.174311 33.6953 6.60033 12.6276 -1 0 1
311 18 1 -0.050311 33.5777 6.92399 11.1888 -1 0 1
312 18 1 -0.091211 34.823 6.39087 10.3821 -1 0 1
313 18 3 0.033922 29.5002 8.10141 14.0123 -1 0 1
314 18 3 0.033922 30.9376 8.5855 14.9979 -1 0 1
315 18 3 0.033922 30.407 6.85824 14.9686 -1 0 1
316 18 3 0.046089 30.6534 6.83236 12.5438 -1 0 1
317 18 3 0.046089 31.4623 8.39486 12.5241 -1 0 1
318 18 4 0.121889 32.8333 6.6028 14.5256 -1 0 1
319 18 4 0.121889 34.6371 6.17248 12.9562 -1 0 1
320 18 3 0.046089 33.6276 8.0154 11.1355 -1 0 1
321 18 3 0.046089 32.6423 6.64918 10.6926 -1 0 1
322 18 3 0.033922 35.7619 6.72903 10.8301 -1 0 1
323 18 3 0.033922 34.8092 5.29972 10.4577 -1 0 1
324 18 3 0.033922 34.7266 6.74801 9.35259 -1 0 1
325 19 1 -0.091211 11.6086 10.7807 3.09379 0 0 0
326 19 1 -0.050311 10.6617 9.56086 3.15962 0 0 0
327 19 2 -0.174311 10.2459 9.08036 1.80015 0 0 0
328 19 2 -0.174311 9.22509 9.68055 1.11159 0 0 0
329 19 1 -0.050311 8.21314 10.7011 1.58103 0 0 0
330 19 1 -0.091211 7.82304 11.7654 0.578586 0 0 0
331 19 3 0.033922 11.72 11.2174 4.09054 0 0 0
332 19 3 0.033922 11.0701 11.5438 2.52439 0 0 0
333 19 3 0.033922 12.5597 10.4411 2.67349 0 0 0
334 19 3 0.046089 11.0994 8.68448 3.6464 0 0 0
335 19 3 0.046089 9.76351 9.81613 3.7295 0 0 0
336 19 4 0.121889 10.9281 8.38702 1.31857 0 0 0
337 19 4 0.121889 9.17091 9.34456 0.0809317 0 0 0
338 19 3 0.046089 8.60602 11.2045 2.46921 0 0 0
339 19 3 0.046089 7.29731 10.2036 1.9132 0 0 0
340 19 3 0.033922 7.1357 11.3035 -0.136136 0 0 0
341 19 3 0.033922 7.29159 12.5605 1.10965 0 0 0
342 19 3 0.033922 8.68565 12.1699 0.0411128 0 0 0
343 20 1 -0.091211 10.933 18.2534 8.84323 0 -1 0
344 20 1 -0.050311 10.97 17.7382 7.3916 0 -1 0
345 20 2 -0.174311 12.3049 18.0399 6.71673 0 -1 0
346 20 2 -0.174311 12.5186 18.5413 5.45269 0 -1 0
347 20 1 -0.050311 11.384 18.8975 4.4644 0 -1 0
348 20 1 -0.091211 11.505 18.2546 3.11957 0 -1 0
349 20 3 0.033922 11.1184 19.3312 8.82137 0 -1 0
350 20 3 0.033922 11.7408 17.8722 9.47479 0 -1 0
351 20 3 0.033922 9.91317 18.1103 9.21204 0 -1 0
352 20 3 0.046089 10.8146 16.6638 7.25725 0 -1 0
353 20 3 0.046089 10.1253 18.2056 6.87708 0 -1 0
354 20 4 0.121889 13.1779 17.6867 7.25615 0 -1 0
355 20 4 0.121889 13.5443 18.6245 5.10747 0 -1 0
356 20 3 0.046089 11.2664 19.9805 4.36572 0 -1 0
357 20 3 0.046089 10.3972 18.5936 4.82559 0 -1 0
358 20 3 0.033922 12.5081 18.4535 2.73126 0 -1 0
359 20 3 0.033922 11.3116 17.1827 3.22071 0 -1 0
360 20 3 0.033922 10.7799 18.7577 2.47321 0 -1 0
361 21 1 -0.091211 -2.41622 3.05959 20.3068 0 0 0
362 21 1 -0.050311 -3.50107 2.45545 21.0334 0 0 0
363 21 2 -0.174311 -3.26373 2.58064 -0.619414 0 0 1
364 21 2 -0.174311 -2.85006 1.54053 0.208714 0 0 1
365 21 1 -0.050311 -2.6449 18.9185 -0.317428 0 -1 1
366 21 1 -0.091211 -1.66737 18.1462 0.622356 0 -1 1
367 21 3 0.033922 -2.43448 4.13756 20.4917 0 0 0
368 21 3 0.033922 -2.51387 2.9312 19.2248 0 0 0
369 21 3 0.033922 -1.41652 2.65217 20.4834 0 0 0
370 21 3 0.046089 -4.42721 2.99171 20.807 0 0 0
371 21 3 0.046089 -3.79116 1.48217 20.6271 0 0 0
372 21 4 0.121889 -3.4298 3.5801 -0.230275 0 0 1
373 21 4 0.121889 -2.70908 1.65939 1.27833 0 0 1
374 21 3 0.046089 -2.32039 18.9778 21.7589 0 -1 0
375 21 3 0.046089 -3.62437 18.4338 -0.36573 0 -1 1
376 21 3 0.033922 -2.14166 17.8881 1.57373 0 -1 1
377 21 3 0.033922 -1.1697 17.3071 0.127652 0 -1 1
378 21 3 0.033922 -0.797291 18.771 0.844128 0 -1 1
379 22 1 -0.091211 2.29507 13.9688 12.9445 0 -1 0
380 22 1 -0.050311 2.49387 14.0606 14.4942 0 -1 0
381 22 2 -0.174311 3.65916 14.8694 14.9496 0 -1 0
382 22 2 -0.174311 4.21189 14.8579 16.2395 0 -1 0
383 22 1 -0.050311 3.71869 14.0927 17.454 0 -1 0
384 22 1 -0.091211 2.93329 14.9071 18.448 0 -1 0
385 22 3 0.033922 1.35725 13.4635 12.6961 0 -1 0
386 22 3 0.033922 3.13003 13.5431 12.3804 0 -1 0
387 22 3 0.033922 2.25752 15.0086 12.6067 0 -1 0
388 22 3 0.046089 1.58308 14.4728 14.9382 0 -1 0
389 22 3 0.046089 2.53157 12.9991 14.7554 0 -1 0
390 22 4 0.121889 4.18854 15.4995 14.242 0 -1 0
391 22 4 0.121889 5.10881 15.469 16.2412 0 -1 0
392 22 3 0.046089 4.59041 13.6586 17.9523 0 -1 0
393 22 3 0.046089 3.10248 13.2123 17.2495 0 -1 0
394 22 3 0.033922 3.46768 15.8062 18.7684 0 -1 0
395 22 3 0.033922 2.05369 15.2293 17.8831 0 -1 0
396 22 3 0.033922 2.6562 14.3097 19.3215 0 -1 0
397 23 1 -0.091211 -1.8544 7.97682 0.553143 0 0 0
398 23 1 -0.050311 -1.37463 7.93292 1.97265 0 0 0
399 23 2 -0.174311 -2.54161 7.93759 2.9644 0 0 0
400 23 2 -0.174311 -2.39419 8.19132 4.28476 0 0 0
401 23 1 -0.050311 -1.03299 8.54815 4.96264 0 0 0
402 23 1 -0.091211 -1.28156 9.70245 5.9392 0 0 0
403 23 3 0.033922 -1.00751 7.9795 -0.139251 0 0 0
404 23 3 0.033922 -2.44697 8.88022 0.382046 0 0 0
405 23 3 0.033922 -2.50935 7.10905 0.432467 0 0 0
406 23 3 0.046089 -0.877099 6.96431 2.07658 0 0 0
407 23 3 0.046089 -0.773556 8.82978 2.14843 0 0 0
408 23 4 0.121889 -3.54797 7.70811 2.6289 0 0 0
409 23 4 0.121889 -3.27663 8.07783 4.9064 0 0 0
410 23 3 0.046089 -0.27177 8.87791 4.24959 0 0 0
411 23 3 0.046089 -0.674424 7.72138 5.5827 0 0 0
412 23 3 0.033922 -2.08971 9.50818 6.65038 0 0 0
413 23 3 0.033922 -0.32754 9.78216 6.46846 0 0 0
414 23 3 0.033922 -1.40498 10.6601 5.42524 0 0 0
415 24 1 -0.091211 -0.0834381 13.9361 4.1319 0 0 0
416 24 1 -0.050311 1.30726 13.6182 3.5023 0 0 0
417 24 2 -0.174311 1.91286 12.362 4.08479 0 0 0
418 24 2 -0.174311 3.29589 12.0081 4.23087 0 0 0
419 24 1 -0.050311 4.43187 12.8811 3.72021 0 0 0
420 24 1 -0.091211 4.9361 13.8705 4.77765 0 0 0
421 24 3 0.033922 -0.794219 13.1522 3.85491 0 0 0
422 24 3 0.033922 -0.437584 14.9458 3.90463 0 0 0
423 24 3 0.033922 0.0568124 13.867 5.2146 0 0 0
424 24 3 0.046089 1.12679 13.6859 2.42548 0 0 0
425 24 3 0.046089 1.9617 14.4214 3.85335 0 0 0
426 24 4 0.121889 1.11964 11.7077 4.43202 0 0 0
427 24 4 0.121889 3.54146 11.0907 4.75623 0 0 0
428 24 3 0.046089 4.08132 13.4132 2.83106 0 0 0
429 24 3 0.046089 5.27148 12.2633 3.3886 0 0 0
430 24 3 0.033922 4.19844 14.5878 5.14896 0 0 0
431 24 3 0.033922 5.14102 13.3475 5.71633 0 0 0
432 24 3 0.033922 5.79991 14.3925 4.35586 0 0 0
433 25 1 -0.091211 0.898983 6.34255 16.2026 0 0 0
434 25 1 -0.050311 1.04437 4.82495 16.2717 0 0 0
435 25 2 -0.174311 1.48605 4.50085 17.6516 0 0 0
436 25 2 -0.174311 2.51991 3.73836 18.128 0 0 0
437 25 1 -0.050311 3.59754 3.29101 17.1267 0 0 0
438 25 1 -0.091211 4.29374 2.09051 17.7397 0 0 0
439 25 3 0.033922 0.0261376 6.58485 16.8158 0 0 0
440 25 3 0.033922 0.654599 6.65857 15.1842 0 0 0
441 25 3 0.033922 1.74991 6.92447 16.5684 0 0 0
442 25 3 0.046089 0.0548472 4.41272 16.0537 0 0 0
443 25 3 0.046089 1.81093 4.61689 15.5195 0 0 0
444 25 4 0.121889 0.708602 4.80018 18.3473 0 0 0
445 25 4 0.121889 2.65812 3.53791 19.1858 0 0 0
446 25 3 0.046089 4.31034 4.10227 16.9526 0 0 0
447 25 3 0.046089 3.11813 2.96167 16.2002 0 0 0
448 25 3 0.033922 3.60651 20.0303 17.9336 0 -1 0
449 25 3 0.033922 5.02376 1.61979 17.0748 0 0 0
450 25 3 0.033922 4.79898 2.37824 18.6663 0 0 0
451 26 1 -0.091211 0.159382 12.5172 21.7247 0 -1 0
452 26 1 -0.050311 -1.12222 12.8043 -0.564061 0 -1 1
453 26 2 -0.174311 -1.01705 12.0945 0.754778 0 -1 1
454 26 2 -0.174311 -2.08152 11.5095 1.44443 0 -1 1
455 26 1 -0.050311 -3.48009 11.4242 0.920841 0 -1 1
456 26 1 -0.091211 -4.30574 12.6526 1.39714 0 -1 1
457 26 3 0.033922 1.05738 12.9844 -0.979972 0 -1 1
458 26 3 0.033922 0.0213388 12.9403 20.7254 0 -1 0
459 26 3 0.033922 0.270376 11.4307 21.7851 0 -1 0
460 26 3 0.046089 -1.13398 13.8778 -0.354717 0 -1 1
461 26 3 0.046089 -2.01889 12.5064 22.004 0 -1 0
462 26 4 0.121889 -0.0277153 11.9921 1.18921 0 -1 1
463 26 4 0.121889 -1.8862 11.1143 2.43627 0 -1 1
464 26 3 0.046089 -3.99465 10.5036 1.21094 0 -1 1
465 26 3 0.046089 -3.43965 11.3394 -0.169054 0 -1 1
466 26 3 0.033922 43.0586 12.6093 0.808207 -1 -1 1
467 26 3 0.033922 -4.42386 12.698 2.48373 0 -1 1
468 26 3 0.033922 -3.69398 13.5135 1.11232 0 -1 1
469 27 1 -0.091211 14.4656 13.5422 20.8787 0 0 -1
470 27 1 -0.050311 15.6298 14.4452 20.4252 0 0 -1
471 27 2 -0.174311 15.729 15.5748 21.4155 0 0 -1
472 27 2 -0.174311 16.866 15.7564 22.0898 0 0 -1
473 27 1 -0.050311 18.1581 14.8606 22.0004 0 0 -1
474 27 1 -0.091211 19.0254 15.2943 20.7822 0 0 -1
475 27 3 0.033922 14.255 12.639 20.2986 0 0 -1
476 27 3 0.033922 13.5643 14.1593 20.9376 0 0 -1
477 27 3 0.033922 14.6131 13.3312 21.9419 0 0 -1
478 27 3 0.046089 16.5504 13.859 20.3518 0 0 -1
479 27 3 0.046089 15.3927 14.7544 19.403 0 0 -1
480 27 4 0.121889 14.9207 16.2767 21.5944 0 0 -1
481 27 4 0.121889 16.941 16.612 -0.365939 0 0 0
482 27 3 0.046089 17.9078 13.8047 22.138 0 0 -1
483 27 3 0.046089 18.6114 15.0491 -0.141357 0 0 0
484 27 3 0.033922 18.939 16.3739 20.6284 0 0 -1
485 27 3 0.033922 20.0414 14.9201 20.9382 0 0 -1
486 27 3 0.033922 18.6512 14.8303 19.865 0 0 -1
487 28 1 -0.091211 5.00491 15.515 0.666823 0 -1 0
488 28 1 -0.050311 6.39305 15.4488 0.0286931 0 -1 0
489 28 2 -0.174311 6.90253 16.9032 -0.32797 0 -1 0
490 28 2 -0.174311 7.95634 17.1031 21.9604 0 -1 -1
491 28 1 -0.050311 8.84832 16.0691 21.38 0 -1 -1
492 28 1 -0.091211 10.0182 15.74 -0.903596 0 -1 0
493 28 3 0.033922 4.65392 14.4859 0.546771 0 -1 0
494 28 3 0.033922 4.35236 16.1494 0.0599324 0 -1 0
495 28 3 0.033922 4.93287 15.893 1.69081 0 -1 0
496 28 3 0.046089 7.1499 15.0456 0.707819 0 -1 0
497 28 3 0.046089 6.26244 14.8655 -0.887451 0 -1 0
498 28 4 0.121889 6.33577 17.7132 0.119982 0 -1 0
499 28 4 0.121889 8.3268 18.0852 21.6845 0 -1 -1
500 28 3 0.046089 9.15817 16.4263 20.3936 0 -1 -1
501 28 3 0.046089 8.29325 15.1399 21.2218 0 -1 -1
502 28 3 0.033922 10.601 14.972 21.6989 0 -1 -1
503 28 3 0.033922 10.7012 16.5641 -0.677931 0 -1 0
504 28 3 0.033922 9.67284 15.3186 0.0450041 0 -1 0
505 29 1 -0.091211 2.87149 7.85663 3.97326 0 0 0
506 29 1 -0.050311 4.33652 7.48966 3.98359 0 0 0
507 29 2 -0.174311 5.02817 8.07189 2.76712 0 0 0
508 29 2 -0.174311 5.90094 7.25669 1.99408 0 0 0
509 29 1 -0.050311 6.09161 5.72045 2.11729 0 0 0
510 29 1 -0.091211 4.80535 4.9323 1.55315 0 0 0
511 29 3 0.033922 2.33151 7.17629 3.30831 0 0 0
512 29 3 0.033922 2.76155 8.89004 3.63192 0 0 0
513 29 3 0.033922 2.51478 7.8333 5.00714 0 0 0
514 29 3 0.046089 4.77641 7.91205 4.89175 0 0 0
515 29 3 0.046089 4.41392 6.39857 3.97751 0 0 0
516 29 4 0.121889 4.9099 9.12964 2.55477 0 0 0
517 29 4 0.121889 6.4249 7.74862 1.18075 0 0 0
518 29 3 0.046089 6.21337 5.37122 3.1468 0 0 0
519 29 3 0.046089 6.98199 5.45038 1.54206 0 0 0
520 29 3 0.033922 4.04105 5.01564 2.33132 0 0 0
521 29 3 0.033922 4.36864 5.10633 0.565389 0 0 0
522 29 3 0.033922 5.07178 3.88159 1.40634 0 0 0
523 30 1 -0.091211 4.8027 4.218 6.41518 0 1 1
524 30 1 -0.050311 4.35452 3.21293 5.46604 0 1 1
525 30 2 -0.174311 3.4467 2.25621 6.20414 0 1 1
526 30 2 -0.174311 3.07382 19.7844 5.76049 0 0 1
527 30 1 -0.050311 3.50825 19.1098 4.48026 0 0 1
528 30 1 -0.091211 2.27872 18.6291 3.6745 0 0 1
529 30 3 0.033922 5.30214 3.74624 7.26644 0 1 1
530 30 3 0.033922 4.06631 4.9379 6.78403 0 1 1
531 30 3 0.033922 5.60778 4.79763 5.95423 0 1 1
532 30 3 0.046089 3.83656 3.76036 4.67315 0 1 1
533 30 3 0.046089 5.12669 2.63269 4.95255 0 1 1
534 30 4 0.121889 3.08827 2.48546 7.20266 0 1 1
535 30 4 0.121889 2.46716 19.2001 6.44503 0 0 1
536 30 3 0.046089 4.20905 18.3276 4.78627 0 0 1
537 30 3 0.046089 4.06509 19.7687 3.80765 0 0 1
538 30 3 0.033922 2.57598 18.2856 2.67937 0 0 1
539 30 3 0.033922 1.75979 17.8314 4.21382 0 0 1
540 30 3 0.033922 1.6038 19.4771 3.52616 0 0 1
541 31 1 -0.091211 20.4162 19.5537 1.1851 0 0 1
542 31 1 -0.050311 21.2394 20.0541 0.0197023 0 0 1
543 31 2 -0.174311 21.8407 18.8039 -0.537794 0 0 1
544 31 2 -0.174311 21.8809 18.4484 21.241 0 0 0
545 31 1 -0.050311 21.3518 19.1483 20.0029 0 0 0
546 31 1 -0.091211 22.1392 18.6948 18.7448 0 0 0
547 31 3 0.033922 19.9559 1.64413 1.68217 0 1 1
548 31 3 0.033922 20.9859 19.0096 1.94399 0 0 1
549 31 3 0.033922 19.6569 18.915 0.724533 0 0 1
550 31 3 0.046089 20.767 1.87638 -0.7705 0 1 1
551 31 3 0.046089 22.0639 1.90867 0.378339 0 1 1
552 31 4 0.121889 22.2174 18.0714 0.168981 0 0 1
553 31 4 0.121889 22.4693 17.5412 21.1467 0 0 0
554 31 3 0.046089 21.4423 1.459 20.1573 0 1 0
555 31 3 0.046089 20.3172 18.8476 19.8137 0 0 0
556 31 3 0.033922 23.1544 19.1022 18.7408 0 0 0
557 31 3 0.033922 22.1386 17.6056 18.6444 0 0 0
558 31 3 0.033922 21.704 19.2095 17.8832 0 0 0
559 32 1 -0.091211 15.7986 1.96512 2.71561 0 1 0
560 32 1 -0.050311 15.1279 20.1683 1.43977 0 0 0
561 32 2 -0.174311 15.0826 2.52357 0.424887 0 1 0
562 32 2 -0.174311 13.9965 3.37009 0.23629 0 1 0
563 32 1 -0.050311 12.6284 3.06973 0.834574 0 1 0
564 32 1 -0.091211 11.675 3.85234 -0.0970866 0 1 0
565 32 3 0.033922 15.6412 20.0071 3.51819 0 0 0
566 32 3 0.033922 15.3535 2.92659 2.98774 0 1 0
567 32 3 0.033922 16.8619 2.17575 2.569 0 1 0
568 32 3 0.046089 15.6886 19.3481 0.981985 0 0 0
569 32 3 0.046089 14.1186 19.7972 1.64004 0 0 0
570 32 4 0.121889 16.014 2.97706 0.10107 0 1 0
571 32 4 0.121889 14.0978 4.24201 -0.402045 0 1 0
572 32 3 0.046089 12.4668 3.34437 1.88107 0 1 0
573 32 3 0.046089 12.4653 1.99509 0.711721 0 1 0
574 32 3 0.033922 10.6527 3.71107 0.265761 0 1 0
575 32 3 0.033922 11.9337 4.91047 -0.196777 0 1 0
576 32 3 0.033922 11.7772 3.39553 22.0336 0 1 -1
577 33 1 -0.091211 15.0081 10.409 14.8104 0 0 0
578 33 1 -0.050311 14.7708 10.9461 16.1638 0 0 0
579 33 2 -0.174311 15.8764 11.8712 16.5229 0 0 0
580 33 2 -0.174311 15.7319 13.2321 16.7266 0 0 0
581 33 1 -0.050311 14.4963 14.0088 16.7314 0 0 0
582 33 1 -0.091211 14.67 15.3849 16.2068 0 0 0
583 33 3 0.033922 16.007 9.98122 14.6848 0 0 0
584 33 3 0.033922 14.8303 11.2411 14.123 0 0 0
585 33 3 0.033922 14.2734 9.62448 14.6072 0 0 0
586 33 3 0.046089 13.767 11.3784 16.1172 0 0 0
587 33 3 0.046089 14.8188 10.1265 16.8867 0 0 0
588 33 4 0.121889 16.8946 11.5293 16.6795 0 0 0
589 33 4 0.121889 16.5996 13.6837 17.1967 0 0 0
590 33 3 0.046089 14.1322 14.1998 17.7452 0 0 0
591 33 3 0.046089 13.7319 13.492 16.1439 0 0 0
592 33 3 0.033922 15.4458 15.9236 16.7587 0 0 0
593 33 3 0.033922 14.8594 15.4084 15.1297 0 0 0
594 33 3 0.033922 13.7942 15.997 16.4414 0 0 0
595 34 1 -0.091211 15.9812 4.25617 11.416 0 1 0
596 34 1 -0.050311 15.6887 2.73534 11.5737 0 1 0
597 34 2 -0.174311 14.2295 2.41551 11.7944 0 1 0
598 34 2 -0.174311 13.8335 1.52119 12.8502 0 1 0
599 34 1 -0.050311 14.6844 19.4449 13.7581 0 0 0
600 34 1 -0.091211 15.1448 18.0923 13.1048 0 0 0
601 34 3 0.033922 15.5544 4.75607 12.2903 0 1 0
602 34 3 0.033922 15.5571 4.63639 10.4821 0 1 0
603 34 3 0.033922 17.0677 4.31384 11.3026 0 1 0
604 34 3 0.046089 16.0588 2.09644 10.7666 0 1 0
605 34 3 0.046089 16.1887 2.44451 12.5022 0 1 0
606 34 4 0.121889 13.3609 2.79689 11.267 0 1 0
607 34 4 0.121889 12.7611 20.1473 12.937 0 0 0
608 34 3 0.046089 13.9326 19.1199 14.4832 0 0 0
609 34 3 0.046089 15.5 20.0664 14.1388 0 0 0
610 34 3 0.033922 14.2686 17.56 12.7234 0 0 0
611 34 3 0.033922 15.8456 18.2586 12.2814 0 0 0
612 34 3 0.033922 15.6313 17.5787 13.9392 0 0 0
613 35 1 -0.091211 36.8608 14.2675 20.5431 -1 0 0