ITEM: TIMESTEP
28500
ITEM: NUMBER OF ATOMS
1800
ITEM: BOX BOUNDS pp pp pp
-6.7232523032999225e-01 3.9480340730330099e+01
2.9480945629740773e-01 2.1313846043702814e+01
-2.0473188712653787e+00 2.3301052371265229e+01
ITEM: ATOMS id mol type q x y z ix iy iz
1 1 1 -0.091211 4.76417 16.8037 6.67773 0 -1 0
2 1 1 -0.050311 3.39618 16.3366 7.11686 0 -1 0
3 1 2 -0.174311 3.01302 14.9956 6.48457 0 -1 0
4 1 2 -0.174311 2.00579 14.1323 6.87378 0 -1 0
5 1 1 -0.050311 1.01776 14.2996 8.08168 0 -1 0
6 1 1 -0.091211 0.882365 12.9612 8.75423 0 -1 0
7 1 3 0.033922 5.59026 16.2305 7.10856 0 -1 0
8 1 3 0.033922 4.89021 17.8412 7.00078 0 -1 0
9 1 3 0.033922 4.84093 16.7145 5.59019 0 -1 0
10 1 3 0.046089 3.42007 16.2346 8.20572 0 -1 0
11 1 3 0.046089 2.58624 17.0355 6.88853 0 -1 0
12 1 4 0.121889 3.54967 14.591 5.63237 0 -1 0
13 1 4 0.121889 1.86682 13.2461 6.2628 0 -1 0
14 1 3 0.046089 0.0581847 14.6925 7.73328 0 -1 0
15 1 3 0.046089 1.29029 15.0729 8.80572 0 -1 0
16 1 3 0.033922 0.066586 12.9419 9.48271 0 -1 0
17 1 3 0.033922 0.648287 12.2114 7.99287 0 -1 0
18 1 3 0.033922 1.85678 12.6214 9.11692 0 -1 0
19 2 1 -0.091211 8.36711 6.0669 19.5847 0 0 0
20 2 1 -0.050311 9.65152 6.7798 19.1912 0 0 0
21 2 2 -0.174311 10.6997 5.83666 18.6772 0 0 0
22 2 2 -0.174311 11.3942 5.7566 17.4739 0 0 0
23 2 1 -0.050311 11.3457 6.6235 16.2754 0 0 0
24 2 1 -0.091211 12.4854 6.33912 15.2271 0 0 0
25 2 3 0.033922 8.41806 5.69421 20.6119 0 0 0
26 2 3 0.033922 8.19772 5.15105 19.0109 0 0 0
27 2 3 0.033922 7.48046 6.70723 19.5649 0 0 0
28 2 3 0.046089 9.20755 7.39065 18.3997 0 0 0
29 2 3 0.046089 10.0886 7.41353 19.9683 0 0 0
30 2 4 0.121889 10.964 5.17875 19.499 0 0 0
31 2 4 0.121889 11.9914 4.85487 17.383 0 0 0
32 2 3 0.046089 11.4372 7.68545 16.5215 0 0 0
33 2 3 0.046089 10.3594 6.43025 15.8436 0 0 0
34 2 3 0.033922 12.2532 5.48437 14.5851 0 0 0
35 2 3 0.033922 12.7048 7.18942 14.5748 0 0 0
36 2 3 0.033922 13.4366 6.25101 15.7599 0 0 0
37 3 1 -0.091211 6.18165 3.64043 6.85548 0 0 0
38 3 1 -0.050311 6.00608 5.06215 7.47784 0 0 0
39 3 2 -0.174311 4.58176 5.34924 7.67806 0 0 0
40 3 2 -0.174311 4.04649 6.11217 8.7039 0 0 0
41 3 1 -0.050311 4.8592 6.71989 9.77021 0 0 0
42 3 1 -0.091211 4.10743 6.55391 11.1302 0 0 0
43 3 3 0.033922 5.6756 2.87746 7.45415 0 0 0
44 3 3 0.033922 7.24532 3.41271 6.97065 0 0 0
45 3 3 0.033922 5.82948 3.54865 5.8239 0 0 0
46 3 3 0.046089 6.60647 5.11431 8.39074 0 0 0
47 3 3 0.046089 6.51952 5.81752 6.87583 0 0 0
48 3 4 0.121889 3.85652 4.74841 7.13862 0 0 0
49 3 4 0.121889 2.96158 6.14052 8.69552 0 0 0
50 3 3 0.046089 5.01525 7.77104 9.51058 0 0 0
51 3 3 0.046089 5.83552 6.25013 9.92074 0 0 0
52 3 3 0.033922 4.66435 6.9744 11.9726 0 0 0
53 3 3 0.033922 3.14511 7.07341 11.1055 0 0 0
54 3 3 0.033922 4.03024 5.48497 11.3495 0 0 0
55 4 1 -0.091211 0.837035 0.347709 2.52933 0 0 0
56 4 1 -0.050311 1.8265 20.6681 1.64663 0 -1 0
57 4 2 -0.174311 2.79196 19.7895 2.3502 0 -1 0
58 4 2 -0.174311 2.58125 18.4684 2.63659 0 -1 0
59 4 1 -0.050311 1.30589 17.7363 2.2903 0 -1 0
60 4 1 -0.091211 1.09312 16.5889 3.19345 0 -1 0
61 4 3 0.033922 0.205575 20.7227 3.14827 0 -1 0
62 4 3 0.033922 0.247222 1.01864 1.89801 0 0 0
63 4 3 0.033922 1.37054 1.04336 3.1836 0 0 0
64 4 3 0.046089 1.25167 20.0902 0.917163 0 -1 0
65 4 3 0.046089 2.38423 0.465595 1.17877 0 0 0
66 4 4 0.121889 3.59904 20.1946 2.95224 0 -1 0
67 4 4 0.121889 3.33151 18.0252 3.28362 0 -1 0
68 4 3 0.046089 1.35028 17.4138 1.24596 0 -1 0
69 4 3 0.046089 0.439855 18.3982 2.38195 0 -1 0
70 4 3 0.033922 0.262064 15.9757 2.83294 0 -1 0
71 4 3 0.033922 1.96192 15.9574 3.40074 0 -1 0
72 4 3 0.033922 0.809421 17.0522 4.14291 0 -1 0
73 5 1 -0.091211 2.06086 3.54995 4.58866 0 0 0
74 5 1 -0.050311 1.16042 4.61536 5.18068 0 0 0
75 5 2 -0.174311 -0.202975 4.03816 5.2699 0 0 0
76 5 2 -0.174311 38.701 4.62598 5.2088 -1 0 0
77 5 1 -0.050311 38.5384 6.10771 4.91669 -1 0 0
78 5 1 -0.091211 38.1902 6.45668 3.47784 -1 0 0
79 5 3 0.033922 1.91029 2.72232 5.28795 0 0 0
80 5 3 0.033922 3.08621 3.92647 4.64705 0 0 0
81 5 3 0.033922 1.85035 3.3784 3.52901 0 0 0
82 5 3 0.046089 1.58926 4.83433 6.16289 0 0 0
83 5 3 0.046089 1.25531 5.47709 4.51355 0 0 0
84 5 4 0.121889 -0.235154 2.96648 5.43879 0 0 0
85 5 4 0.121889 37.8137 4.01956 5.36009 -1 0 0
86 5 3 0.046089 39.4536 6.61555 5.23466 -1 0 0
87 5 3 0.046089 37.8175 6.49687 5.64159 -1 0 0
88 5 3 0.033922 37.8175 7.47812 3.35769 -1 0 0
89 5 3 0.033922 39.058 6.4518 2.81194 -1 0 0
90 5 3 0.033922 37.3967 5.79823 3.11256 -1 0 0
91 6 1 -0.091211 10.5159 2.85225 -1.95006 0 0 1
92 6 1 -0.050311 9.68816 3.67778 22.4326 0 0 0
93 6 2 -0.174311 9.36155 2.7492 21.2324 0 0 0
94 6 2 -0.174311 8.17758 2.49337 20.6637 0 0 0
95 6 1 -0.050311 6.75673 2.69141 21.2142 0 0 0
96 6 1 -0.091211 5.88905 1.93236 20.2785 0 0 0
97 6 3 0.033922 9.83565 2.11433 -1.51495 0 0 1
98 6 3 0.033922 10.8107 3.5271 -1.14117 0 0 1
99 6 3 0.033922 11.352 2.27572 22.9921 0 0 0
100 6 3 0.046089 8.73911 3.95359 22.9014 0 0 0
101 6 3 0.046089 10.2419 4.53426 22.0371 0 0 0
102 6 4 0.121889 10.1822 2.39078 20.6192 0 0 0
103 6 4 0.121889 8.26296 1.9918 19.705 0 0 0
104 6 3 0.046089 6.57769 3.77028 21.189 0 0 0
105 6 3 0.046089 6.53143 2.3546 22.2303 0 0 0
106 6 3 0.033922 4.88089 1.99458 20.6984 0 0 0
107 6 3 0.033922 5.93579 2.30447 19.2509 0 0 0
108 6 3 0.033922 6.19903 0.88525 20.2142 0 0 0
109 7 1 -0.091211 33.4496 11.6255 7.99827 -1 0 0
110 7 1 -0.050311 34.8282 11.8051 8.48235 -1 0 0
111 7 2 -0.174311 35.8676 10.9001 7.90222 -1 0 0
112 7 2 -0.174311 37.0977 11.2754 7.34263 -1 0 0
113 7 1 -0.050311 37.5632 12.7309 7.20055 -1 0 0
114 7 1 -0.091211 36.9505 13.4961 5.94797 -1 0 0
115 7 3 0.033922 33.0466 10.6085 7.99419 -1 0 0
116 7 3 0.033922 33.3447 11.9725 6.96619 -1 0 0
117 7 3 0.033922 32.7744 12.2346 8.60629 -1 0 0
118 7 3 0.046089 35.0735 12.7905 8.07546 -1 0 0
119 7 3 0.046089 34.8642 11.794 9.5756 -1 0 0
120 7 4 0.121889 35.5476 9.86802 8.0041 -1 0 0
121 7 4 0.121889 37.793 10.4961 7.04726 -1 0 0
122 7 3 0.046089 38.657 12.7418 7.18725 -1 0 0
123 7 3 0.046089 37.3134 13.3244 8.08483 -1 0 0
124 7 3 0.033922 35.8602 13.433 5.8872 -1 0 0
125 7 3 0.033922 37.1861 14.5615 6.02747 -1 0 0
126 7 3 0.033922 37.4216 12.9781 5.10755 -1 0 0
127 8 1 -0.091211 3.19024 5.63128 14.2787 0 0 0
128 8 1 -0.050311 2.85866 5.64063 15.7407 0 0 0
129 8 2 -0.174311 4.17415 5.68002 16.4714 0 0 0
130 8 2 -0.174311 4.41682 5.50009 17.8058 0 0 0
131 8 1 -0.050311 3.19825 5.30935 18.773 0 0 0
132 8 1 -0.091211 3.28826 4.00887 19.4956 0 0 0
133 8 3 0.033922 4.08296 5.05166 14.0264 0 0 0
134 8 3 0.033922 3.40336 6.62534 13.8749 0 0 0
135 8 3 0.033922 2.3033 5.23 13.7798 0 0 0
136 8 3 0.046089 2.17727 6.48693 15.8676 0 0 0
137 8 3 0.046089 2.3679 4.70751 16.0324 0 0 0
138 8 4 0.121889 5.07762 5.90308 15.9129 0 0 0
139 8 4 0.121889 5.41855 5.42516 18.2167 0 0 0
140 8 3 0.046089 2.24822 5.28759 18.2312 0 0 0
141 8 3 0.046089 3.06666 6.14879 19.4619 0 0 0
142 8 3 0.033922 2.32075 3.83394 19.975 0 0 0
143 8 3 0.033922 3.59177 3.19644 18.8289 0 0 0
144 8 3 0.033922 4.06745 4.12815 20.254 0 0 0
145 9 1 -0.091211 1.25653 8.78387 22.8087 0 0 0
146 9 1 -0.050311 -0.0362537 8.85496 22.0062 0 0 0
147 9 2 -0.174311 -0.310401 7.63751 21.1061 0 0 0
148 9 2 -0.174311 38.7684 7.61114 20.3226 -1 0 0
149 9 1 -0.050311 37.5545 8.56196 20.2379 -1 0 0
150 9 1 -0.091211 36.473 7.98913 21.0896 -1 0 0
151 9 3 0.033922 1.25806 7.96041 -1.81956 0 0 1
152 9 3 0.033922 1.3151 9.73066 -1.99484 0 0 1
153 9 3 0.033922 2.12847 8.7307 22.1504 0 0 0
154 9 3 0.046089 39.2676 8.93508 22.6915 -1 0 0
155 9 3 0.046089 0.0202888 9.74562 21.3736 0 0 0
156 9 4 0.121889 0.497008 6.94395 20.8938 0 0 0
157 9 4 0.121889 38.703 6.82197 19.5803 -1 0 0
158 9 3 0.046089 37.2259 8.70101 19.2039 -1 0 0
159 9 3 0.046089 37.7698 9.58344 20.5648 -1 0 0
160 9 3 0.033922 36.9959 7.51726 21.9265 -1 0 0
161 9 3 0.033922 35.7336 8.71952 21.4308 -1 0 0
162 9 3 0.033922 35.8716 7.2578 20.5417 -1 0 0
163 10 1 -0.091211 9.70769 12.2453 7.2915 0 0 1
164 10 1 -0.050311 10.3336 11.0616 7.91664 0 0 1
165 10 2 -0.174311 9.16049 10.0814 8.09311 0 0 1
166 10 2 -0.174311 8.91361 8.88865 7.43526 0 0 1
167 10 1 -0.050311 9.74812 8.261 6.39046 0 0 1
168 10 1 -0.091211 9.37612 6.83178 6.21384 0 0 1
169 10 3 0.033922 9.26781 12.0446 6.31026 0 0 1
170 10 3 0.033922 10.4288 13.067 7.25494 0 0 1
171 10 3 0.033922 8.93127 12.5757 7.98762 0 0 1
172 10 3 0.046089 11.1375 10.6523 7.29797 0 0 1
173 10 3 0.046089 10.8611 11.282 8.8492 0 0 1
174 10 4 0.121889 8.39196 10.265 8.83716 0 0 1
175 10 4 0.121889 8.12536 8.24839 7.81827 0 0 1
176 10 3 0.046089 10.8112 8.35382 6.63083 0 0 1
177 10 3 0.046089 9.6149 8.64687 5.37558 0 0 1
178 10 3 0.033922 8.4684 6.64871 5.63154 0 0 1
179 10 3 0.033922 10.1814 6.27367 5.72738 0 0 1
180 10 3 0.033922 9.22032 6.37983 7.19775 0 0 1
181 11 1 -0.091211 36.8993 11.2687 -0.140897 -1 0 0
182 11 1 -0.050311 36.1806 11.4186 1.21837 -1 0 0
183 11 2 -0.174311 36.5724 10.5138 2.33764 -1 0 0
184 11 2 -0.174311 35.7339 10.2225 3.42833 -1 0 0
185 11 1 -0.050311 34.4205 10.862 3.76943 -1 0 0
186 11 1 -0.091211 33.4128 9.76837 3.90152 -1 0 0
187 11 3 0.033922 37.9272 11.6274 -0.0351508 -1 0 0
188 11 3 0.033922 36.2825 11.7448 -0.908602 -1 0 0
189 11 3 0.033922 37.1056 10.222 -0.382984 -1 0 0
190 11 3 0.046089 36.1479 12.4323 1.62804 -1 0 0
191 11 3 0.046089 35.139 11.1928 0.972287 -1 0 0
192 11 4 0.121889 37.4146 9.83238 2.27143 -1 0 0
193 11 4 0.121889 35.9897 9.40523 4.09521 -1 0 0
194 11 3 0.046089 34.0221 11.5189 2.99074 -1 0 0
195 11 3 0.046089 34.3594 11.4581 4.68459 -1 0 0
196 11 3 0.033922 32.4554 10.2294 4.16103 -1 0 0
197 11 3 0.033922 33.2998 9.2118 2.9666 -1 0 0
198 11 3 0.033922 33.6883 8.99409 4.62346 -1 0 0
199 12 1 -0.091211 0.40871 9.6806 5.65735 0 0 0
200 12 1 -0.050311 1.7425 10.0715 6.27886 0 0 0
201 12 2 -0.174311 2.51452 8.81907 6.43637 0 0 0
202 12 2 -0.174311 3.85336 8.72042 6.26407 0 0 0
203 12 1 -0.050311 4.91449 9.84515 6.21033 0 0 0
204 12 1 -0.091211 5.04323 10.2585 4.76502 0 0 0
205 12 3 0.033922 -0.150715 9.01965 6.32578 0 0 0
206 12 3 0.033922 0.74163 9.13188 4.77152 0 0 0
207 12 3 0.033922 -0.199967 10.5478 5.385 0 0 0
208 12 3 0.046089 2.29031 10.7321 5.60047 0 0 0
209 12 3 0.046089 1.56843 10.5988 7.22137 0 0 0
210 12 4 0.121889 2.08654 7.84603 6.65556 0 0 0
211 12 4 0.121889 4.32073 7.7475 6.37819 0 0 0
212 12 3 0.046089 5.82954 9.49078 6.69371 0 0 0
213 12 3 0.046089 4.67062 10.7698 6.74158 0 0 0
214 12 3 0.033922 5.28259 9.5405 3.97521 0 0 0
215 12 3 0.033922 4.13593 10.7861 4.45683 0 0 0
216 12 3 0.033922 5.78326 11.0638 4.74525 0 0 0
217 13 1 -0.091211 8.04405 12.9118 11.0243 0 0 0
218 13 1 -0.050311 6.60272 12.4007 10.838 0 0 0
219 13 2 -0.174311 6.47245 10.9094 11.0382 0 0 0
220 13 2 -0.174311 5.22698 10.2818 11.0958 0 0 0
221 13 1 -0.050311 4.02567 11.039 10.6891 0 0 0
222 13 1 -0.091211 2.77164 10.3472 11.1382 0 0 0
223 13 3 0.033922 8.75461 12.3551 10.4064 0 0 0
224 13 3 0.033922 8.23644 12.7928 12.0945 0 0 0
225 13 3 0.033922 8.22826 13.9657 10.796 0 0 0
226 13 3 0.046089 5.90849 12.9234 11.5024 0 0 0
227 13 3 0.046089 6.23397 12.6846 9.84799 0 0 0
228 13 4 0.121889 7.28558 10.2384 11.2962 0 0 0
229 13 4 0.121889 5.18767 9.24059 11.3997 0 0 0
230 13 3 0.046089 4.05113 11.1083 9.59773 0 0 0
231 13 3 0.046089 4.07377 12.0219 11.1669 0 0 0
232 13 3 0.033922 2.62734 9.427 10.5647 0 0 0
233 13 3 0.033922 2.83047 10.0364 12.1854 0 0 0
234 13 3 0.033922 1.86138 10.9434 11.026 0 0 0
235 14 1 -0.091211 14.0657 10.7669 21.7988 0 0 0
236 14 1 -0.050311 13.5839 10.988 20.366 0 0 0
237 14 2 -0.174311 12.2397 10.3117 20.2089 0 0 0
238 14 2 -0.174311 11.7186 9.93279 18.9791 0 0 0
239 14 1 -0.050311 12.2047 10.2577 17.6056 0 0 0
240 14 1 -0.091211 11.2492 10.7755 16.5807 0 0 0
241 14 3 0.033922 14.0293 9.7212 22.1181 0 0 0
242 14 3 0.033922 13.496 11.3691 22.5125 0 0 0
243 14 3 0.033922 15.1244 11.0215 21.9032 0 0 0
244 14 3 0.046089 13.5603 12.0664 20.1838 0 0 0
245 14 3 0.046089 14.3398 10.5463 19.7102 0 0 0
246 14 4 0.121889 11.7959 9.97872 21.1417 0 0 0
247 14 4 0.121889 10.7995 9.37076 19.1108 0 0 0
248 14 3 0.046089 12.6543 9.31228 17.2884 0 0 0
249 14 3 0.046089 12.9613 11.047 17.5718 0 0 0
250 14 3 0.033922 11.7918 10.9112 15.6405 0 0 0
251 14 3 0.033922 10.4509 10.0518 16.3923 0 0 0
252 14 3 0.033922 10.8613 11.7181 16.9777 0 0 0
253 15 1 -0.091211 3.35404 16.744 19.0171 0 0 0
254 15 1 -0.050311 2.21922 15.7278 19.2484 0 0 0
255 15 2 -0.174311 1.89173 15.4504 20.6731 0 0 0
256 15 2 -0.174311 2.30917 14.4389 21.464 0 0 0
257 15 1 -0.050311 3.01451 13.2345 20.971 0 0 0
258 15 1 -0.091211 2.26688 11.9785 21.3361 0 0 0
259 15 3 0.033922 3.24791 17.7166 19.5064 0 0 0
260 15 3 0.033922 3.46934 16.8803 17.9378 0 0 0
261 15 3 0.033922 4.34561 16.4399 19.3646 0 0 0
262 15 3 0.046089 1.31531 16.2108 18.866 0 0 0
263 15 3 0.046089 2.34284 14.7605 18.7527 0 0 0
264 15 4 0.121889 1.13169 16.1104 21.0789 0 0 0
265 15 4 0.121889 1.81684 14.468 22.4309 0 0 0
266 15 3 0.046089 3.98414 13.1185 21.4639 0 0 0
267 15 3 0.046089 3.41772 13.3148 19.9573 0 0 0
268 15 3 0.033922 1.54491 11.7625 20.5432 0 0 0
269 15 3 0.033922 2.99078 11.1584 21.3276 0 0 0
270 15 3 0.033922 1.76651 12.0633 22.3051 0 0 0
271 16 1 -0.091211 12.1723 19.9107 5.11171 0 0 0
272 16 1 -0.050311 11.1644 20.9592 4.61135 0 0 0
273 16 2 -0.174311 10.0551 21.3017 5.66684 0 0 0
274 16 2 -0.174311 8.65814 21.1294 5.54176 0 0 0
275 16 1 -0.050311 8.01447 20.5907 4.2774 0 0 0
276 16 1 -0.091211 6.58989 19.9979 4.57945 0 0 0
277 16 3 0.033922 12.5211 20.3726 6.03991 0 0 0
278 16 3 0.033922 12.9639 19.5999 4.42367 0 0 0
279 16 3 0.033922 11.5941 19.0199 5.37411 0 0 0
280 16 3 0.046089 11.7595 0.792339 4.27044 0 1 0
281 16 3 0.046089 10.7 20.5553 3.70705 0 0 0
282 16 4 0.121889 10.4629 0.650744 6.60291 0 1 0
283 16 4 0.121889 7.95761 0.317838 6.34436 0 1 0
284 16 3 0.046089 8.56161 19.7761 3.79409 0 0 0
285 16 3 0.046089 7.99657 0.42904 3.59823 0 1 0
286 16 3 0.033922 6.05219 19.8374 3.64045 0 0 0
287 16 3 0.033922 6.78198 19.0723 5.12999 0 0 0
288 16 3 0.033922 6.01503 20.6134 5.2775 0 0 0
289 17 1 -0.091211 8.87841 15.8091 13.5778 0 0 0
290 17 1 -0.050311 7.65557 16.6722 13.8608 0 0 0
291 17 2 -0.174311 6.58457 16.0705 13.0005 0 0 0
292 17 2 -0.174311 5.40003 16.7177 12.6995 0 0 0
293 17 1 -0.050311 5.01863 18.0723 13.1612 0 0 0
294 17 1 -0.091211 4.21381 17.9585 14.3512 0 0 0
295 17 3 0.033922 8.77638 14.8762 14.14 0 0 0
296 17 3 0.033922 9.72452 16.4036 13.9344 0 0 0
297 17 3 0.033922 8.9886 15.6953 12.4954 0 0 0
298 17 3 0.046089 7.39392 16.7633 14.919 0 0 0
299 17 3 0.046089 7.94797 17.636 13.4339 0 0 0
300 17 4 0.121889 6.92139 15.1564 12.522 0 0 0
301 17 4 0.121889 4.76601 16.1859 11.9972 0 0 0
302 17 3 0.046089 4.37314 18.5507 12.4189 0 0 0
303 17 3 0.046089 5.87961 18.7284 13.3188 0 0 0
304 17 3 0.033922 4.30301 18.9264 14.853 0 0 0
305 17 3 0.033922 3.17583 17.7765 14.058 0 0 0
306 17 3 0.033922 4.5825 17.1852 15.0314 0 0 0
307 18 1 -0.091211 3.62396 14.2566 -0.200026 0 0 1
308 18 1 -0.050311 2.97016 13.5894 0.983511 0 0 1
309 18 2 -0.174311 1.44666 13.8016 0.732036 0 0 1
310 18 2 -0.174311 0.554098 13.4809 1.75157 0 0 1
311 18 1 -0.050311 0.845225 13.0502 3.17643 0 0 1
312 18 1 -0.091211 -0.359986 13.2522 4.13611 0 0 1
313 18 3 0.033922 3.52359 15.3445 -0.256516 0 0 1
314 18 3 0.033922 3.10589 13.9824 -1.1236 0 0 1
315 18 3 0.033922 4.64328 13.8781 -0.31919 0 0 1
316 18 3 0.046089 3.28889 12.5445 1.03925 0 0 1
317 18 3 0.046089 3.2739 14.0347 1.93539 0 0 1
318 18 4 0.121889 1.05844 14.2224 -0.190003 0 0 1
319 18 4 0.121889 -0.496832 13.613 1.51488 0 0 1
320 18 3 0.046089 1.77227 13.4837 3.56265 0 0 1
321 18 3 0.046089 0.965967 11.9747 3.33606 0 0 1
322 18 3 0.033922 -0.565893 14.3224 4.23152 0 0 1
323 18 3 0.033922 38.8757 12.763 3.79508 -1 0 1
324 18 3 0.033922 -0.164129 12.9225 5.16057 0 0 1
325 19 1 -0.091211 17.8189 6.63593 -0.632613 0 0 0
326 19 1 -0.050311 16.5675 6.5421 0.150924 0 0 0
327 19 2 -0.174311 15.5716 7.64298 -0.159241 0 0 0
328 19 2 -0.174311 14.2659 7.47386 -0.494145 0 0 0
329 19 1 -0.050311 13.5524 6.15179 -0.635667 0 0 0
330 19 1 -0.091211 12.135 6.51452 -1.1605 0 0 0
331 19 3 0.033922 17.7341 6.261 -1.65675 0 0 0
332 19 3 0.033922 18.5702 6.0116 -0.140404 0 0 0
333 19 3 0.033922 18.0948 7.69241 -0.698936 0 0 0
334 19 3 0.046089 16.1132 5.56497 -0.037361 0 0 0
335 19 3 0.046089 16.9245 6.65122 1.17915 0 0 0
336 19 4 0.121889 15.9774 8.64938 -0.136176 0 0 0
337 19 4 0.121889 13.7439 8.37678 -0.794601 0 0 0
338 19 3 0.046089 13.5465 5.70314 0.361978 0 0 0
339 19 3 0.046089 14.0448 5.52242 -1.38271 0 0 0
340 19 3 0.033922 12.187 7.14345 23.2944 0 0 -1
341 19 3 0.033922 11.6436 5.55527 -1.34762 0 0 0
342 19 3 0.033922 11.6013 7.00664 -0.342167 0 0 0
343 20 1 -0.091211 11.3351 20.7963 10.8003 0 -1 0
344 20 1 -0.050311 11.9968 1.06814 11.0872 0 0 0
345 20 2 -0.174311 13.1078 0.85842 12.0837 0 0 0
346 20 2 -0.174311 13.0976 1.33583 13.3326 0 0 0
347 20 1 -0.050311 12.1438 2.25861 13.97 0 0 0
348 20 1 -0.091211 12.6565 2.90547 15.3351 0 0 0
349 20 3 0.033922 11.8404 19.913 11.2017 0 -1 0
350 20 3 0.033922 11.1669 20.6952 9.72417 0 -1 0
351 20 3 0.033922 10.2837 20.8295 11.1002 0 -1 0
352 20 3 0.046089 12.4904 1.52196 10.2229 0 0 0
353 20 3 0.046089 11.2689 1.79057 11.4679 0 0 0
354 20 4 0.121889 14.0303 0.418776 11.7182 0 0 0
355 20 4 0.121889 13.9539 0.947817 13.8749 0 0 0
356 20 3 0.046089 11.2054 1.70289 14.0545 0 0 0
357 20 3 0.046089 11.8295 3.06523 13.3012 0 0 0
358 20 3 0.033922 13.1179 2.15443 15.9829 0 0 0
359 20 3 0.033922 13.3809 3.67085 15.0418 0 0 0
360 20 3 0.033922 11.8608 3.37804 15.9182 0 0 0
361 21 1 -0.091211 1.86233 20.8653 19.3539 0 -1 0
362 21 1 -0.050311 0.884302 20.0054 20.1837 0 -1 0
363 21 2 -0.174311 1.46221 19.7218 21.6249 0 -1 0
364 21 2 -0.174311 0.686663 19.7872 22.7571 0 -1 0
365 21 1 -0.050311 39.3591 20.1116 22.7643 -1 -1 0
366 21 1 -0.091211 39.2482 0.609054 22.8741 -1 0 0
367 21 3 0.033922 2.00663 0.815053 19.841 0 0 0
368 21 3 0.033922 1.4283 21.1386 18.3877 0 -1 0
369 21 3 0.033922 2.82581 20.3706 19.2004 0 -1 0
370 21 3 0.046089 -0.0925249 20.4975 20.1987 0 -1 0
371 21 3 0.046089 0.819901 19.0446 19.6647 0 -1 0
372 21 4 0.121889 2.49634 19.3924 21.6275 0 -1 0
373 21 4 0.121889 1.15116 19.5586 -1.63733 0 -1 1
374 21 3 0.046089 38.8293 19.6708 -1.73472 -1 -1 1
375 21 3 0.046089 38.8335 19.618 21.9416 -1 -1 0
376 21 3 0.033922 39.5618 1.112 21.9547 -1 0 0
377 21 3 0.033922 38.2154 0.86452 23.128 -1 0 0
378 21 3 0.033922 -0.288473 1.02017 -1.66914 0 0 1
379 22 1 -0.091211 5.48363 0.657463 16.3712 0 0 0
380 22 1 -0.050311 5.69884 0.622807 14.8933 0 0 0
381 22 2 -0.174311 5.60823 1.93211 14.2743 0 0 0
382 22 2 -0.174311 5.79385 2.22149 12.9614 0 0 0
383 22 1 -0.050311 6.15693 1.2199 11.991 0 0 0
384 22 1 -0.091211 7.50047 1.47337 11.3562 0 0 0
385 22 3 0.033922 6.22694 1.2947 16.8591 0 0 0
386 22 3 0.033922 5.50299 20.6544 16.7605 0 -1 0
387 22 3 0.033922 4.50235 1.04821 16.6557 0 0 0
388 22 3 0.046089 6.71308 21.2733 14.7144 0 -1 0
389 22 3 0.046089 4.91662 20.9914 14.4912 0 -1 0
390 22 4 0.121889 5.29624 2.81554 14.8222 0 0 0
391 22 4 0.121889 5.52605 3.23043 12.6641 0 0 0
392 22 3 0.046089 5.43571 1.26691 11.1699 0 0 0
393 22 3 0.046089 6.13204 21.2144 12.3736 0 -1 0
394 22 3 0.033922 7.44723 2.33891 10.6894 0 0 0
395 22 3 0.033922 8.20078 1.63616 12.1807 0 0 0
396 22 3 0.033922 7.836 0.57085 10.8371 0 0 0
397 23 1 -0.091211 5.06498 8.03899 -1.51831 0 0 0
398 23 1 -0.050311 5.26198 7.0278 -0.44918 0 0 0
399 23 2 -0.174311 4.93248 7.76541 0.90047 0 0 0
400 23 2 -0.174311 4.94214 7.10009 2.14523 0 0 0
401 23 1 -0.050311 5.41867 5.68161 2.29107 0 0 0
402 23 1 -0.091211 6.6078 5.58876 3.33838 0 0 0
403 23 3 0.033922 5.37401 7.66172 22.8509 0 0 -1
404 23 3 0.033922 5.72525 8.88698 -1.31444 0 0 0
405 23 3 0.033922 4.04893 8.42696 -1.63524 0 0 0
406 23 3 0.046089 4.64918 6.1251 -0.528205 0 0 0
407 23 3 0.046089 6.32158 6.76252 -0.390946 0 0 0
408 23 4 0.121889 4.72067 8.82991 0.906132 0 0 0
409 23 4 0.121889 4.80538 7.66574 3.06138 0 0 0
410 23 3 0.046089 5.76841 5.1835 1.38213 0 0 0
411 23 3 0.046089 4.59731 5.01708 2.57453 0 0 0
412 23 3 0.033922 7.56361 5.96498 2.9623 0 0 0
413 23 3 0.033922 6.3138 6.26762 4.14419 0 0 0
414 23 3 0.033922 6.82619 4.56469 3.65498 0 0 0
415 24 1 -0.091211 7.44749 12.3308 2.55616 0 0 0
416 24 1 -0.050311 8.32995 13.2666 1.7935 0 0 0
417 24 2 -0.174311 9.77011 13.1875 2.19125 0 0 0
418 24 2 -0.174311 10.4795 14.202 2.83772 0 0 0
419 24 1 -0.050311 10.0836 15.5741 3.12415 0 0 0
420 24 1 -0.091211 10.0368 15.9283 4.59533 0 0 0
421 24 3 0.033922 7.74994 11.2827 2.47438 0 0 0
422 24 3 0.033922 6.43535 12.362 2.14247 0 0 0
423 24 3 0.033922 7.35822 12.7369 3.56793 0 0 0
424 24 3 0.046089 8.30279 13.0286 0.726151 0 0 0
425 24 3 0.046089 7.87586 14.2457 1.9719 0 0 0
426 24 4 0.121889 10.2619 12.2514 1.94657 0 0 0
427 24 4 0.121889 11.5554 14.1324 2.96254 0 0 0
428 24 3 0.046089 9.03912 15.7484 2.84991 0 0 0
429 24 3 0.046089 10.6081 16.2981 2.49387 0 0 0
430 24 3 0.033922 11.0078 15.9631 5.09781 0 0 0
431 24 3 0.033922 9.60562 16.9327 4.63745 0 0 0
432 24 3 0.033922 9.36074 15.2972 5.17952 0 0 0
433 25 1 -0.091211 6.33375 8.51699 14.9985 0 0 0
434 25 1 -0.050311 7.35382 7.36979 15.26 0 0 0
435 25 2 -0.174311 7.23815 6.41772 14.1108 0 0 0
436 25 2 -0.174311 7.42053 5.05043 14.3561 0 0 0
437 25 1 -0.050311 7.78636 4.34262 15.6872 0 0 0
438 25 1 -0.091211 8.86912 3.27316 15.5069 0 0 0
439 25 3 0.033922 6.49578 9.28762 15.7578 0 0 0
440 25 3 0.033922 5.29311 8.18654 14.9321 0 0 0
441 25 3 0.033922 6.51441 9.02754 14.0481 0 0 0
442 25 3 0.046089 8.37087 7.76302 15.3466 0 0 0
443 25 3 0.046089 7.03341 6.89969 16.1943 0 0 0
444 25 4 0.121889 6.75091 6.61184 13.1606 0 0 0
445 25 4 0.121889 7.36164 4.42957 13.4678 0 0 0
446 25 3 0.046089 6.88727 3.86368 16.0857 0 0 0
447 25 3 0.046089 8.1185 5.10268 16.4004 0 0 0
448 25 3 0.033922 9.60561 3.65793 14.7955 0 0 0
449 25 3 0.033922 9.31267 3.13213 16.4969 0 0 0
450 25 3 0.033922 8.35329 2.3936 15.1108 0 0 0
451 26 1 -0.091211 2.1557 0.608293 12.3575 0 0 0
452 26 1 -0.050311 1.89715 21.0073 13.7563 0 -1 0
453 26 2 -0.174311 0.409159 21.0916 14.0665 0 -1 0
454 26 2 -0.174311 -0.331904 20.0304 14.6332 0 -1 0
455 26 1 -0.050311 0.185487 18.6355 14.833 0 -1 0
456 26 1 -0.091211 0.975369 18.5077 16.074 0 -1 0
457 26 3 0.033922 1.79289 20.8655 11.6613 0 -1 0
458 26 3 0.033922 3.22532 0.783088 12.2096 0 0 0
459 26 3 0.033922 1.73041 1.59099 12.1337 0 0 0
460 26 3 0.046089 2.32662 20.0037 13.8272 0 -1 0
461 26 3 0.046089 2.46239 0.598863 14.4665 0 0 0
462 26 4 0.121889 -0.115396 1.02267 14.0793 0 0 0
463 26 4 0.121889 38.7724 20.3021 14.7046 -1 -1 0
464 26 3 0.046089 0.75431 18.2027 14.0049 0 -1 0
465 26 3 0.046089 -0.707539 18.009 14.9141 0 -1 0
466 26 3 0.033922 1.76877 17.7762 15.8953 0 -1 0
467 26 3 0.033922 1.53776 19.4361 16.2101 0 -1 0
468 26 3 0.033922 0.321286 18.2349 16.9073 0 -1 0
469 27 1 -0.091211 21.9112 13.2234 7.01118 0 0 0
470 27 1 -0.050311 20.9479 12.3153 6.22414 0 0 0
471 27 2 -0.174311 21.4051 10.8445 6.39967 0 0 0
472 27 2 -0.174311 22.3901 10.2278 5.66259 0 0 0
473 27 1 -0.050311 23.3008 10.8331 4.63971 0 0 0
474 27 1 -0.091211 24.7405 10.5556 4.92685 0 0 0
475 27 3 0.033922 21.6056 14.2719 6.94901 0 0 0
476 27 3 0.033922 22.945 13.1711 6.65772 0 0 0
477 27 3 0.033922 21.8547 12.8371 8.03306 0 0 0
478 27 3 0.046089 19.9586 12.4975 6.65375 0 0 0
479 27 3 0.046089 21.0328 12.5403 5.157 0 0 0
480 27 4 0.121889 20.8961 10.1359 7.04529 0 0 0
481 27 4 0.121889 22.6343 9.19617 5.89525 0 0 0
482 27 3 0.046089 23.126 11.9125 4.60849 0 0 0
483 27 3 0.046089 23.0718 10.4509 3.64063 0 0 0
484 27 3 0.033922 25.1246 11.2372 5.69138 0 0 0
485 27 3 0.033922 24.8448 9.51864 5.25926 0 0 0
486 27 3 0.033922 25.2523 10.5351 3.96027 0 0 0
487 28 1 -0.091211 7.00953 0.691457 0.508424 0 0 0
488 28 1 -0.050311 5.98921 20.8928 -0.277103 0 -1 0
489 28 2 -0.174311 6.53101 19.6025 -0.795119 0 -1 0
490 28 2 -0.174311 5.82226 18.5171 -1.20219 0 -1 0
491 28 1 -0.050311 4.404 18.4511 -1.20872 0 -1 0
492 28 1 -0.091211 3.95141 17.572 22.9506 0 -1 -1
493 28 3 0.033922 6.57737 1.64275 0.83236 0 0 0
494 28 3 0.033922 7.86387 0.990906 -0.105566 0 0 0
495 28 3 0.033922 7.33131 21.1552 1.39429 0 -1 0
496 28 3 0.046089 5.05377 20.6533 0.236859 0 -1 0
497 28 3 0.046089 5.75247 0.501687 -1.14096 0 0 0
498 28 4 0.121889 7.61512 19.6104 -0.744522 0 -1 0
499 28 4 0.121889 6.40463 17.664 -1.53532 0 -1 0
500 28 3 0.046089 3.98452 19.4555 -1.31786 0 -1 0
501 28 3 0.046089 3.98017 18.1123 -0.258889 0 -1 0
502 28 3 0.033922 2.86513 17.5433 22.8254 0 -1 -1
503 28 3 0.033922 4.41631 17.8927 22.0138 0 -1 -1
504 28 3 0.033922 4.27031 16.5386 23.115 0 -1 -1
505 29 1 -0.091211 11.7715 8.91786 11.4552 0 0 0
506 29 1 -0.050311 11.4072 7.54279 10.9121 0 0 0
507 29 2 -0.174311 9.99391 7.48262 10.4006 0 0 0
508 29 2 -0.174311 9.33904 6.2703 10.1166 0 0 0
509 29 1 -0.050311 9.89784 4.88855 10.3556 0 0 0
510 29 1 -0.091211 9.70192 3.98644 9.20481 0 0 0
511 29 3 0.033922 10.992 9.31884 12.1096 0 0 0
512 29 3 0.033922 11.9017 9.62168 10.628 0 0 0
513 29 3 0.033922 12.7551 8.86252 11.9306 0 0 0
514 29 3 0.046089 12.2204 7.24708 10.2429 0 0 0
515 29 3 0.046089 11.5581 6.86769 11.7596 0 0 0
516 29 4 0.121889 9.47472 8.4089 10.176 0 0 0
517 29 4 0.121889 8.32772 6.34426 9.72975 0 0 0
518 29 3 0.046089 9.50908 4.40208 11.255 0 0 0
519 29 3 0.046089 10.964 4.97849 10.5831 0 0 0
520 29 3 0.033922 10.502 4.22095 8.49673 0 0 0
521 29 3 0.033922 9.84096 2.94005 9.49187 0 0 0
522 29 3 0.033922 8.74849 4.16809 8.70031 0 0 0
523 30 1 -0.091211 13.87 17.0942 20.4926 0 0 0
524 30 1 -0.050311 13.5322 15.8187 21.2785 0 0 0
525 30 2 -0.174311 13.5286 16.2535 22.7991 0 0 0
526 30 2 -0.174311 13.4637 15.4969 -1.41767 0 0 1
527 30 1 -0.050311 13.3024 13.9992 -1.6242 0 0 1
528 30 1 -0.091211 12.6569 13.2035 -0.460563 0 0 1
529 30 3 0.033922 13.7321 16.8969 19.4256 0 0 0
530 30 3 0.033922 14.9472 17.2775 20.5435 0 0 0
531 30 3 0.033922 13.2768 17.972 20.765 0 0 0
532 30 3 0.046089 12.531 15.5788 20.909 0 0 0
533 30 3 0.046089 14.2127 14.9961 21.04 0 0 0
534 30 4 0.121889 13.6165 17.2799 23.1411 0 0 0
535 30 4 0.121889 13.6524 15.8961 -0.426169 0 0 1
536 30 3 0.046089 14.3414 13.6759 -1.73576 0 0 1
537 30 3 0.046089 12.7687 13.7315 22.8076 0 0 0
538 30 3 0.033922 11.6553 13.5779 -0.230095 0 0 1
539 30 3 0.033922 12.7561 12.1443 -0.71534 0 0 1
540 30 3 0.033922 13.2406 13.4105 0.441097 0 0 1
541 31 1 -0.091211 19.8266 4.46592 12.8553 0 1 0
542 31 1 -0.050311 19.3759 3.00376 12.9325 0 1 0
543 31 2 -0.174311 17.9648 2.99832 13.4408 0 1 0
544 31 2 -0.174311 17.6207 2.81926 14.7605 0 1 0
545 31 1 -0.050311 18.5152 2.70356 16.0012 0 1 0
546 31 1 -0.091211 18.4238 1.2536 16.5148 0 1 0
547 31 3 0.033922 19.4461 5.09312 13.6667 0 1 0
548 31 3 0.033922 19.3076 4.87771 11.9848 0 1 0
549 31 3 0.033922 20.883 4.73722 12.7719 0 1 0
550 31 3 0.046089 19.3654 2.59615 11.9175 0 1 0
551 31 3 0.046089 20.0181 2.33822 13.5167 0 1 0
552 31 4 0.121889 17.1783 3.20709 12.7227 0 1 0
553 31 4 0.121889 16.5414 2.80976 14.8742 0 1 0
554 31 3 0.046089 18.16 3.40627 16.7606 0 1 0
555 31 3 0.046089 19.5322 2.99706 15.7253 0 1 0
556 31 3 0.033922 17.3958 1.13694 16.87 0 1 0
557 31 3 0.033922 18.6876 0.585929 15.6894 0 1 0
558 31 3 0.033922 19.1358 1.15356 17.3392 0 1 0
559 32 1 -0.091211 16.5245 20.9658 2.06997 0 0 0
560 32 1 -0.050311 15.782 20.9668 3.47207 0 0 0
561 32 2 -0.174311 16.2282 19.6677 4.14557 0 0 0
562 32 2 -0.174311 17.4357 19.2976 4.75247 0 0 0
563 32 1 -0.050311 18.7124 20.1979 4.71574 0 0 0
564 32 1 -0.091211 19.3668 20.1031 6.09249 0 0 0
565 32 3 0.033922 16.1932 20.1036 1.48375 0 0 0
566 32 3 0.033922 17.6111 20.9764 2.19508 0 0 0
567 32 3 0.033922 16.2483 0.887205 1.58431 0 1 0
568 32 3 0.046089 15.9684 0.845745 4.06829 0 1 0
569 32 3 0.046089 14.7029 20.8452 3.34042 0 0 0
570 32 4 0.121889 15.4503 18.9211 4.26924 0 0 0
571 32 4 0.121889 17.4599 18.379 5.32995 0 0 0
572 32 3 0.046089 18.4523 21.2255 4.44517 0 0 0
573 32 3 0.046089 19.3179 19.8793 3.86229 0 0 0
574 32 3 0.033922 20.2156 20.7827 6.21296 0 0 0
575 32 3 0.033922 18.5957 20.2336 6.85726 0 0 0
576 32 3 0.033922 19.8506 19.1227 6.12883 0 0 0
577 33 1 -0.091211 12.8406 17.0639 9.56955 0 0 0
578 33 1 -0.050311 11.5158 16.6466 9.00724 0 0 0
579 33 2 -0.174311 10.3237 16.6058 9.87069 0 0 0
580 33 2 -0.174311 9.02883 17.1871 9.69671 0 0 0
581 33 1 -0.050311 8.69756 17.9029 8.51424 0 0 0
582 33 1 -0.091211 7.30631 18.5266 8.61577 0 0 0
583 33 3 0.033922 13.0044 16.3908 10.4161 0 0 0
584 33 3 0.033922 12.8483 18.1216 9.84876 0 0 0
585 33 3 0.033922 13.6608 16.9658 8.85247 0 0 0
586 33 3 0.046089 11.2836 17.4347 8.28497 0 0 0
587 33 3 0.046089 11.575 15.6896 8.48077 0 0 0
588 33 4 0.121889 10.3654 15.8505 10.649 0 0 0
589 33 4 0.121889 8.26634 17.0603 10.4586 0 0 0
590 33 3 0.046089 8.67145 17.2591 7.6302 0 0 0
591 33 3 0.046089 9.40495 18.7199 8.34481 0 0 0
592 33 3 0.033922 7.22933 19.1688 9.49798 0 0 0
593 33 3 0.033922 7.03044 19.0633 7.70335 0 0 0
594 33 3 0.033922 6.54665 17.7397 8.62957 0 0 0
595 34 1 -0.091211 20.6322 17.2113 14.4614 0 0 0
596 34 1 -0.050311 20.4047 15.8611 13.8693 0 0 0
597 34 2 -0.174311 21.6558 14.9988 13.9261 0 0 0
598 34 2 -0.174311 22.6428 15.0099 12.9772 0 0 0
599 34 1 -0.050311 22.5598 15.8906 11.7504 0 0 0
600 34 1 -0.091211 22.3806 14.9836 10.5495 0 0 0
601 34 3 0.033922 21.116 17.15 15.4405 0 0 0
602 34 3 0.033922 19.6458 17.6526 14.6317 0 0 0
603 34 3 0.033922 21.2751 17.7422 13.7533 0 0 0
604 34 3 0.046089 19.6174 15.4059 14.4771 0 0 0
605 34 3 0.046089 20.0648 16.1027 12.858 0 0 0
606 34 4 0.121889 21.6646 14.1564 14.6104 0 0 0
607 34 4 0.121889 23.4817 14.3465 13.1623 0 0 0
608 34 3 0.046089 23.4455 16.5154 11.6023 0 0 0
609 34 3 0.046089 21.6825 16.5398 11.8245 0 0 0
610 34 3 0.033922 21.4908 14.3504 10.611 0 0 0
611 34 3 0.033922 22.3178 15.5541 9.61828 0 0 0
612 34 3 0.033922 23.2687 14.351 10.4611 0 0 0
613 35 1 -0.091211 -0.165654 12.1389 17.3759 0 0 0
614 35 1 -0.050311 0.457677 10.6938 17.6221 0 0 0
615 35 2 -0.174311 1.72734 10.6615 16.7861 0 0 0
616 35 2 -0.174311 2.88479 9.91821 17.1458 0 0 0
617 35 1 -0.050311 3.10852 9.00199 18.3267 0 0 0
618 35 1 -0.091211 4.48029 9.23378 18.9683 0 0 0