ITEM: TIMESTEP
50200
ITEM: NUMBER OF ATOMS
1800
ITEM: BOX BOUNDS pp pp pp
-3.1695273591974740e+00 4.1977542859196681e+01
-1.5162491455392466e+00 2.3124904645539591e+01
7.9864244522191719e-01 2.0455091054777924e+01
ITEM: ATOMS id mol type q x y z ix iy iz
1 1 1 -0.091211 1.39263 18.5551 12.742 0 -1 0
2 1 1 -0.050311 2.90062 18.3256 12.8582 0 -1 0
3 1 2 -0.174311 3.58795 19.6662 13.0229 0 -1 0
4 1 2 -0.174311 4.36211 20.3501 12.0417 0 -1 0
5 1 1 -0.050311 4.76313 19.7405 10.7112 0 -1 0
6 1 1 -0.091211 3.8206 20.2213 9.58593 0 -1 0
7 1 3 0.033922 1.00723 19.139 13.5828 0 -1 0
8 1 3 0.033922 0.865318 17.5975 12.7812 0 -1 0
9 1 3 0.033922 1.33233 19.0704 11.779 0 -1 0
10 1 3 0.046089 3.09615 17.6298 13.6793 0 -1 0
11 1 3 0.046089 3.21031 17.7916 11.9551 0 -1 0
12 1 4 0.121889 3.37527 20.1675 13.9618 0 -1 0
13 1 4 0.121889 4.7651 21.3309 12.2729 0 -1 0
14 1 3 0.046089 4.71345 18.6491 10.764 0 -1 0
15 1 3 0.046089 5.74844 20.0373 10.3402 0 -1 0
16 1 3 0.033922 3.8874 21.313 9.57202 0 -1 0
17 1 3 0.033922 4.28766 19.9304 8.64052 0 -1 0
18 1 3 0.033922 2.8512 19.7192 9.65527 0 -1 0
19 2 1 -0.091211 14.4495 2.65499 15.2564 0 0 0
20 2 1 -0.050311 13.6741 3.77581 14.5455 0 0 0
21 2 2 -0.174311 12.2706 3.29553 14.1587 0 0 0
22 2 2 -0.174311 11.9755 2.6561 12.9788 0 0 0
23 2 1 -0.050311 13.0181 2.02127 12.0741 0 0 0
24 2 1 -0.091211 13.1882 0.480313 12.1747 0 0 0
25 2 3 0.033922 14.9386 2.03451 14.4999 0 0 0
26 2 3 0.033922 13.8043 2.00059 15.8497 0 0 0
27 2 3 0.033922 15.2156 3.06362 15.9217 0 0 0
28 2 3 0.046089 13.5495 4.63601 15.2096 0 0 0
29 2 3 0.046089 14.2418 4.12171 13.6768 0 0 0
30 2 4 0.121889 11.3896 3.72617 14.624 0 0 0
31 2 4 0.121889 10.9323 2.5067 12.7192 0 0 0
32 2 3 0.046089 14.0002 2.36813 12.4085 0 0 0
33 2 3 0.046089 12.7782 2.32776 11.0518 0 0 0
34 2 3 0.033922 14.102 0.182139 11.6525 0 0 0
35 2 3 0.033922 13.2951 0.168793 13.2178 0 0 0
36 2 3 0.033922 12.3475 -0.0712293 11.744 0 0 0
37 3 1 -0.091211 3.93606 4.86629 9.87373 0 0 0
38 3 1 -0.050311 4.55264 4.43502 11.2897 0 0 0
39 3 2 -0.174311 4.39002 5.59496 12.218 0 0 0
40 3 2 -0.174311 4.53573 5.45337 13.589 0 0 0
41 3 1 -0.050311 5.03488 4.2056 14.314 0 0 0
42 3 1 -0.091211 4.19068 4.15791 15.5378 0 0 0
43 3 3 0.033922 2.85795 4.93297 10.0466 0 0 0
44 3 3 0.033922 3.99182 4.04662 9.15155 0 0 0
45 3 3 0.033922 4.45277 5.73793 9.46166 0 0 0
46 3 3 0.046089 3.95707 3.62372 11.7182 0 0 0
47 3 3 0.046089 5.60019 4.12708 11.2231 0 0 0
48 3 4 0.121889 4.04746 6.57788 11.9106 0 0 0
49 3 4 0.121889 4.6283 6.38465 14.1386 0 0 0
50 3 3 0.046089 6.09053 4.33174 14.5715 0 0 0
51 3 3 0.046089 4.90275 3.29082 13.729 0 0 0
52 3 3 0.033922 4.27214 3.19227 16.0452 0 0 0
53 3 3 0.033922 4.46878 4.9304 16.2606 0 0 0
54 3 3 0.033922 3.1707 4.43139 15.2524 0 0 0
55 4 1 -0.091211 -0.754869 2.98683 9.54622 0 0 0
56 4 1 -0.050311 -1.10072 2.05641 8.37733 0 0 0
57 4 2 -0.174311 -0.00842666 2.01862 7.34866 0 0 0
58 4 2 -0.174311 0.380693 0.861634 6.76581 0 0 0
59 4 1 -0.050311 -0.234692 -0.494239 6.82054 0 0 0
60 4 1 -0.091211 0.738647 23.1067 6.29908 0 -1 0
61 4 3 0.033922 -1.45719 2.85117 10.3738 0 0 0
62 4 3 0.033922 -0.791168 4.04484 9.27089 0 0 0
63 4 3 0.033922 0.277747 2.865 9.88606 0 0 0
64 4 3 0.046089 -1.37303 1.09635 8.8253 0 0 0
65 4 3 0.046089 -2.04512 2.45616 7.99665 0 0 0
66 4 4 0.121889 0.454375 2.98084 7.15399 0 0 0
67 4 4 0.121889 1.2875 0.923111 6.17259 0 0 0
68 4 3 0.046089 -1.20417 -0.441727 6.3166 0 0 0
69 4 3 0.046089 -0.357053 -0.66875 7.89341 0 0 0
70 4 3 0.033922 1.588 22.949 6.97013 0 -1 0
71 4 3 0.033922 0.221074 22.1502 6.41648 0 -1 0
72 4 3 0.033922 1.06647 -1.37866 5.26721 0 0 0
73 5 1 -0.091211 -2.42719 6.94518 3.15307 0 0 0
74 5 1 -0.050311 -2.24686 5.62216 3.84036 0 0 0
75 5 2 -0.174311 41.5618 5.03937 4.15866 -1 0 0
76 5 2 -0.174311 41.0047 5.10651 5.44472 -1 0 0
77 5 1 -0.050311 41.5514 5.9313 6.57741 -1 0 0
78 5 1 -0.091211 40.425 6.3518 7.47437 -1 0 0
79 5 3 0.033922 -1.4775 7.32235 2.76261 0 0 0
80 5 3 0.033922 -2.79047 7.64306 3.91302 0 0 0
81 5 3 0.033922 -3.11527 6.82562 2.31116 0 0 0
82 5 3 0.046089 -1.71306 4.92913 3.18363 0 0 0
83 5 3 0.046089 -1.68478 5.72171 4.77347 0 0 0
84 5 4 0.121889 41.0794 4.43654 3.39591 -1 0 0
85 5 4 0.121889 40.1045 4.51979 5.59757 -1 0 0
86 5 3 0.046089 -3.11877 6.80944 6.13245 0 0 0
87 5 3 0.046089 -2.83958 5.40746 7.16946 0 0 0
88 5 3 0.033922 40.7954 6.68401 8.44849 -1 0 0
89 5 3 0.033922 39.7557 7.12216 7.08048 -1 0 0
90 5 3 0.033922 39.7523 5.53765 7.75923 -1 0 0
91 6 1 -0.091211 9.17874 2.89607 18.5068 0 0 0
92 6 1 -0.050311 9.64445 3.31816 17.1122 0 0 0
93 6 2 -0.174311 10.3628 4.65415 17.0549 0 0 0
94 6 2 -0.174311 9.74016 5.89881 16.8622 0 0 0
95 6 1 -0.050311 8.26876 6.1022 16.5449 0 0 0
96 6 1 -0.091211 8.03337 6.13893 15.0564 0 0 0
97 6 3 0.033922 8.22477 3.39885 18.6905 0 0 0
98 6 3 0.033922 9.91912 3.11127 19.2827 0 0 0
99 6 3 0.033922 9.0881 1.80641 18.4759 0 0 0
100 6 3 0.046089 10.3573 2.56201 16.7707 0 0 0
101 6 3 0.046089 8.81427 3.40604 16.4053 0 0 0
102 6 4 0.121889 11.4104 4.5949 17.3325 0 0 0
103 6 4 0.121889 10.3785 6.77587 16.8272 0 0 0
104 6 3 0.046089 7.86402 7.02453 16.9716 0 0 0
105 6 3 0.046089 7.59674 5.36936 17.0009 0 0 0
106 6 3 0.033922 6.96673 6.37905 15.0206 0 0 0
107 6 3 0.033922 8.59566 6.89634 14.5025 0 0 0
108 6 3 0.033922 8.23534 5.18087 14.5687 0 0 0
109 7 1 -0.091211 39.9778 18.561 2.31906 -1 0 0
110 7 1 -0.050311 39.0863 19.5436 1.48692 -1 0 0
111 7 2 -0.174311 38.4907 18.8401 19.867 -1 0 -1
112 7 2 -0.174311 37.2243 19.0647 19.3526 -1 0 -1
113 7 1 -0.050311 36.2732 20.0106 19.7993 -1 0 -1
114 7 1 -0.091211 34.8772 19.7986 19.2591 -1 0 -1
115 7 3 0.033922 40.7116 18.1468 1.62156 -1 0 0
116 7 3 0.033922 39.3728 17.7427 2.72014 -1 0 0
117 7 3 0.033922 40.5777 19.0717 3.07795 -1 0 0
118 7 3 0.046089 38.3256 19.8334 2.21765 -1 0 0
119 7 3 0.046089 39.6866 20.3954 1.15429 -1 0 0
120 7 4 0.121889 38.9778 17.9324 19.5253 -1 0 -1
121 7 4 0.121889 36.9577 18.3512 18.5795 -1 0 -1
122 7 3 0.046089 36.6721 20.9898 19.5189 -1 0 -1
123 7 3 0.046089 36.2935 19.9922 1.23634 -1 0 0
124 7 3 0.033922 34.7776 20.1421 18.2254 -1 0 -1
125 7 3 0.033922 34.7331 18.7151 19.3024 -1 0 -1
126 7 3 0.033922 34.1388 20.2743 19.9111 -1 0 -1
127 8 1 -0.091211 -1.9932 9.2149 20.0923 0 0 0
128 8 1 -0.050311 -1.0628 8.4439 19.1924 0 0 0
129 8 2 -0.174311 0.0493461 9.33479 18.7962 0 0 0
130 8 2 -0.174311 0.927105 9.08475 17.7509 0 0 0
131 8 1 -0.050311 0.742404 7.89474 16.8425 0 0 0
132 8 1 -0.091211 1.93375 7.77563 15.9674 0 0 0
133 8 3 0.033922 -2.8167 8.54286 20.3507 0 0 0
134 8 3 0.033922 -2.37991 10.0467 19.4963 0 0 0
135 8 3 0.033922 -1.44932 9.64329 1.28269 0 0 1
136 8 3 0.046089 -0.616875 7.60589 19.736 0 0 0
137 8 3 0.046089 -1.70143 8.14938 18.3546 0 0 0
138 8 4 0.121889 0.42011 10.0587 19.5148 0 0 0
139 8 4 0.121889 1.74896 9.78468 17.6385 0 0 0
140 8 3 0.046089 -0.117288 8.06541 16.188 0 0 0
141 8 3 0.046089 0.661412 6.97553 17.4299 0 0 0
142 8 3 0.033922 1.82064 6.87243 15.3608 0 0 0
143 8 3 0.033922 2.05016 8.6624 15.3377 0 0 0
144 8 3 0.033922 2.8816 7.65514 16.5 0 0 0
145 9 1 -0.091211 38.5179 15.4034 5.25726 -1 0 1
146 9 1 -0.050311 38.5515 14.9872 6.78853 -1 0 1
147 9 2 -0.174311 38.4813 13.4834 6.99348 -1 0 1
148 9 2 -0.174311 38.7254 12.7439 8.17598 -1 0 1
149 9 1 -0.050311 38.9744 13.365 9.53422 -1 0 1
150 9 1 -0.091211 40.4655 13.5491 9.84017 -1 0 1
151 9 3 0.033922 39.4869 15.1161 4.83888 -1 0 1
152 9 3 0.033922 38.2814 16.464 5.13196 -1 0 1
153 9 3 0.033922 37.714 14.9648 4.65891 -1 0 1
154 9 3 0.046089 39.3455 15.4483 7.38302 -1 0 1
155 9 3 0.046089 37.6035 15.3572 7.18984 -1 0 1
156 9 4 0.121889 38.2644 12.9094 6.09827 -1 0 1
157 9 4 0.121889 38.8049 11.6658 8.07986 -1 0 1
158 9 3 0.046089 38.4824 12.8332 10.3537 -1 0 1
159 9 3 0.046089 38.496 14.3476 9.5809 -1 0 1
160 9 3 0.033922 41.0425 14.0295 9.04469 -1 0 1
161 9 3 0.033922 40.4736 14.2696 10.6632 -1 0 1
162 9 3 0.033922 40.8989 12.5865 10.1265 -1 0 1
163 10 1 -0.091211 10.0707 9.0476 8.70787 0 0 1
164 10 1 -0.050311 8.95209 8.68029 7.66183 0 0 1
165 10 2 -0.174311 7.89295 9.65639 7.40712 0 0 1
166 10 2 -0.174311 6.82232 9.28753 6.68488 0 0 1
167 10 1 -0.050311 6.69089 7.99666 5.86768 0 0 1
168 10 1 -0.091211 6.01595 6.93266 6.77099 0 0 1
169 10 3 0.033922 10.6712 9.90413 8.38794 0 0 1
170 10 3 0.033922 10.7368 8.18145 8.76024 0 0 1
171 10 3 0.033922 9.624 9.23229 9.68911 0 0 1
172 10 3 0.046089 9.39808 8.30316 6.73696 0 0 1
173 10 3 0.046089 8.34802 7.83969 8.01545 0 0 1
174 10 4 0.121889 7.90329 10.7169 7.63755 0 0 1
175 10 4 0.121889 6.11186 10.0768 6.46078 0 0 1
176 10 3 0.046089 7.68455 7.63526 5.58721 0 0 1
177 10 3 0.046089 6.17753 8.15197 4.91434 0 0 1
178 10 3 0.033922 6.62155 6.73868 7.66102 0 0 1
179 10 3 0.033922 5.02066 7.20196 7.13634 0 0 1
180 10 3 0.033922 5.86574 6.07136 6.11363 0 0 1
181 11 1 -0.091211 39.2709 15.6678 14.4232 -1 0 0
182 11 1 -0.050311 40.5567 14.9458 14.3133 -1 0 0
183 11 2 -0.174311 41.661 15.4426 15.2899 -1 0 0
184 11 2 -0.174311 -2.18098 15.0257 15.0179 0 0 0
185 11 1 -0.050311 -1.73899 14.2622 13.7422 0 0 0
186 11 1 -0.091211 -1.55308 15.2883 12.6037 0 0 0
187 11 3 0.033922 38.9377 15.5865 15.4619 -1 0 0
188 11 3 0.033922 38.5224 15.2381 13.7512 -1 0 0
189 11 3 0.033922 39.3631 16.704 14.0853 -1 0 0
190 11 3 0.046089 40.3469 13.8774 14.4187 -1 0 0
191 11 3 0.046089 40.9369 15.0723 13.2955 -1 0 0
192 11 4 0.121889 41.4281 16.0802 16.1368 -1 0 0
193 11 4 0.121889 -1.3446 15.3691 15.6183 0 0 0
194 11 3 0.046089 -2.46415 13.4795 13.5014 0 0 0
195 11 3 0.046089 -0.813542 13.6912 13.861 0 0 0
196 11 3 0.033922 -0.978853 16.1857 12.8516 0 0 0
197 11 3 0.033922 -1.12747 14.8268 11.7079 0 0 0
198 11 3 0.033922 -2.54221 15.6427 12.2994 0 0 0
199 12 1 -0.091211 1.43899 13.0982 6.49965 0 0 0
200 12 1 -0.050311 2.18501 12.71 7.80627 0 0 0
201 12 2 -0.174311 1.93585 13.7226 8.82801 0 0 0
202 12 2 -0.174311 2.69234 14.9517 9.0348 0 0 0
203 12 1 -0.050311 3.82209 15.3515 8.19537 0 0 0
204 12 1 -0.091211 5.03734 15.4495 9.11384 0 0 0
205 12 3 0.033922 1.59288 14.1353 6.18767 0 0 0
206 12 3 0.033922 0.363304 13.0221 6.68335 0 0 0
207 12 3 0.033922 1.69948 12.4226 5.67976 0 0 0
208 12 3 0.046089 1.85504 11.7398 8.18884 0 0 0
209 12 3 0.046089 3.23865 12.6827 7.51349 0 0 0
210 12 4 0.121889 1.25429 13.5809 9.66068 0 0 0
211 12 4 0.121889 2.39694 15.5444 9.89469 0 0 0
212 12 3 0.046089 3.63961 16.3533 7.79593 0 0 0
213 12 3 0.046089 4.11411 14.682 7.38109 0 0 0
214 12 3 0.033922 5.47872 14.4666 9.30249 0 0 0
215 12 3 0.033922 5.81777 16.0336 8.61747 0 0 0
216 12 3 0.033922 4.7201 15.933 10.0424 0 0 0
217 13 1 -0.091211 0.946996 11.898 12.2092 0 0 0
218 13 1 -0.050311 1.90772 12.6115 13.057 0 0 0
219 13 2 -0.174311 1.65284 12.2118 14.5528 0 0 0
220 13 2 -0.174311 1.63906 13.1814 15.5371 0 0 0
221 13 1 -0.050311 1.83155 14.7303 15.2595 0 0 0
222 13 1 -0.091211 2.6402 15.4308 16.3423 0 0 0
223 13 3 0.033922 -0.0868113 12.2213 12.3621 0 0 0
224 13 3 0.033922 1.01746 10.8542 12.5285 0 0 0
225 13 3 0.033922 1.13222 11.9595 11.1329 0 0 0
226 13 3 0.046089 2.86325 12.2741 12.645 0 0 0
227 13 3 0.046089 1.74391 13.6694 12.8325 0 0 0
228 13 4 0.121889 1.30753 11.2034 14.7575 0 0 0
229 13 4 0.121889 1.39752 12.9077 16.5592 0 0 0
230 13 3 0.046089 0.895696 15.2492 15.0324 0 0 0
231 13 3 0.046089 2.46064 14.762 14.3652 0 0 0
232 13 3 0.033922 1.87793 15.7656 17.0518 0 0 0
233 13 3 0.033922 3.21454 14.6999 16.9189 0 0 0
234 13 3 0.033922 3.16788 16.3052 15.9504 0 0 0
235 14 1 -0.091211 14.9967 10.5527 7.79093 0 0 0
236 14 1 -0.050311 15.9446 10.2608 8.9825 0 0 0
237 14 2 -0.174311 15.351 10.6608 10.3233 0 0 0
238 14 2 -0.174311 14.6763 9.81219 11.2221 0 0 0
239 14 1 -0.050311 14.438 8.33842 10.9761 0 0 0
240 14 1 -0.091211 15.4432 7.39489 11.6291 0 0 0
241 14 3 0.033922 14.7835 11.6253 7.8175 0 0 0
242 14 3 0.033922 13.9869 10.1511 7.91531 0 0 0
243 14 3 0.033922 15.4247 10.2635 6.8267 0 0 0
244 14 3 0.046089 16.2364 9.20671 8.99897 0 0 0
245 14 3 0.046089 16.8407 10.8711 8.83671 0 0 0
246 14 4 0.121889 15.6164 11.677 10.5971 0 0 0
247 14 4 0.121889 14.3174 10.3077 12.1185 0 0 0
248 14 3 0.046089 14.3311 8.20676 9.89549 0 0 0
249 14 3 0.046089 13.411 8.19593 11.325 0 0 0
250 14 3 0.033922 15.0872 6.36186 11.5773 0 0 0
251 14 3 0.033922 16.3297 7.5457 11.0062 0 0 0
252 14 3 0.033922 15.6862 7.5585 12.683 0 0 0
253 15 1 -0.091211 -0.667462 19.0561 16.4672 0 0 0
254 15 1 -0.050311 0.35159 18.3555 17.2972 0 0 0
255 15 2 -0.174311 1.7142 18.9337 16.9901 0 0 0
256 15 2 -0.174311 2.86109 18.7096 17.7594 0 0 0
257 15 1 -0.050311 3.08258 18.101 19.1866 0 0 0
258 15 1 -0.091211 4.35944 17.1854 19.1694 0 0 0
259 15 3 0.033922 -0.836781 20.0798 16.8135 0 0 0
260 15 3 0.033922 -1.58583 18.4994 16.6754 0 0 0
261 15 3 0.033922 -0.472488 19.0216 15.3915 0 0 0
262 15 3 0.046089 0.222408 18.5261 18.3699 0 0 0
263 15 3 0.046089 0.387059 17.2782 17.1109 0 0 0
264 15 4 0.121889 1.79413 19.6406 16.1705 0 0 0
265 15 4 0.121889 3.74584 19.2381 17.419 0 0 0
266 15 3 0.046089 2.20888 17.6417 19.6581 0 0 0
267 15 3 0.046089 3.35707 18.9666 19.7963 0 0 0
268 15 3 0.033922 5.15582 17.6905 18.6151 0 0 0
269 15 3 0.033922 4.61997 17.0164 20.2182 0 0 0
270 15 3 0.033922 4.10332 16.2056 18.7559 0 0 0
271 16 1 -0.091211 8.80877 4.55404 10.7247 0 1 0
272 16 1 -0.050311 9.00749 3.05059 10.5307 0 1 0
273 16 2 -0.174311 7.79892 2.51428 9.79138 0 1 0
274 16 2 -0.174311 7.0171 1.56196 10.3327 0 1 0
275 16 1 -0.050311 7.07108 0.891224 11.706 0 1 0
276 16 1 -0.091211 6.44167 -0.558381 11.7082 0 1 0
277 16 3 0.033922 8.81944 5.09344 9.7732 0 1 0
278 16 3 0.033922 9.55864 5.00763 11.3794 0 1 0
279 16 3 0.033922 7.80817 4.67227 11.1507 0 1 0
280 16 3 0.046089 9.8962 2.87016 9.91897 0 1 0
281 16 3 0.046089 9.1201 2.52961 11.4859 0 1 0
282 16 4 0.121889 7.64294 2.90946 8.79269 0 1 0
283 16 4 0.121889 6.19994 1.26939 9.68105 0 1 0
284 16 3 0.046089 6.52236 1.47927 12.4474 0 1 0
285 16 3 0.046089 8.10147 0.919453 12.0723 0 1 0
286 16 3 0.033922 6.34544 -1.02031 12.695 0 1 0
287 16 3 0.033922 5.39764 -0.388842 11.4291 0 1 0
288 16 3 0.033922 6.98832 -1.21324 11.0235 0 1 0
289 17 1 -0.091211 7.09995 14.2539 18.8585 0 0 0
290 17 1 -0.050311 6.34361 13.7119 17.6453 0 0 0
291 17 2 -0.174311 7.34501 13.5481 16.4959 0 0 0
292 17 2 -0.174311 7.10184 13.8402 15.1477 0 0 0
293 17 1 -0.050311 5.72536 14.2886 14.7087 0 0 0
294 17 1 -0.091211 5.45619 13.9148 13.2629 0 0 0
295 17 3 0.033922 8.05088 13.7726 19.1047 0 0 0
296 17 3 0.033922 6.42299 14.2777 19.7174 0 0 0
297 17 3 0.033922 7.26437 15.3141 18.645 0 0 0
298 17 3 0.046089 5.73835 12.8451 17.9262 0 0 0
299 17 3 0.046089 5.59499 14.4596 17.3676 0 0 0
300 17 4 0.121889 8.3278 13.2154 16.8144 0 0 0
301 17 4 0.121889 7.89788 13.7851 14.412 0 0 0
302 17 3 0.046089 5.56131 15.3541 14.8937 0 0 0
303 17 3 0.046089 4.97736 13.8323 15.3635 0 0 0
304 17 3 0.033922 4.54488 14.2979 12.7945 0 0 0
305 17 3 0.033922 6.2772 14.3691 12.7006 0 0 0
306 17 3 0.033922 5.36146 12.8327 13.1344 0 0 0
307 18 1 -0.091211 38.2511 8.98748 9.97798 -1 0 1
308 18 1 -0.050311 39.3792 8.27171 10.6131 -1 0 1
309 18 2 -0.174311 39.2682 8.34554 12.1399 -1 0 1
310 18 2 -0.174311 40.163 9.0132 13.0259 -1 0 1
311 18 1 -0.050311 41.5036 9.54437 12.695 -1 0 1
312 18 1 -0.091211 -2.87337 9.83463 14.0268 0 0 1
313 18 3 0.033922 38.2493 8.77351 8.90527 -1 0 1
314 18 3 0.033922 38.2638 10.0745 10.0992 -1 0 1
315 18 3 0.033922 37.2889 8.64552 10.37 -1 0 1
316 18 3 0.046089 39.4363 7.22395 10.3041 -1 0 1
317 18 3 0.046089 40.3451 8.67092 10.2902 -1 0 1
318 18 4 0.121889 38.3802 7.89117 12.5676 -1 0 1
319 18 4 0.121889 39.9079 8.965 14.0797 -1 0 1
320 18 3 0.046089 41.3916 10.3958 12.0175 -1 0 1
321 18 3 0.046089 -3.05705 8.76335 12.2024 0 0 1
322 18 3 0.033922 41.861 10.7267 14.5068 -1 0 1
323 18 3 0.033922 -2.92021 9.06465 14.8023 0 0 1
324 18 3 0.033922 -1.80061 9.93989 13.8404 0 0 1
325 19 1 -0.091211 7.59089 13.5414 6.73223 0 0 0
326 19 1 -0.050311 9.0838 13.3585 6.44485 0 0 0
327 19 2 -0.174311 9.21238 13.1676 4.96068 0 0 0
328 19 2 -0.174311 10.1115 12.3437 4.28988 0 0 0
329 19 1 -0.050311 11.1409 11.4064 4.88069 0 0 0
330 19 1 -0.091211 12.2977 12.0639 5.56841 0 0 0
331 19 3 0.033922 7.2082 14.3559 6.11029 0 0 0
332 19 3 0.033922 7.46434 13.7507 7.79837 0 0 0
333 19 3 0.033922 7.01882 12.6466 6.47045 0 0 0
334 19 3 0.046089 9.68144 14.1892 6.83141 0 0 0
335 19 3 0.046089 9.45622 12.4545 6.93529 0 0 0
336 19 4 0.121889 8.43208 13.6295 4.36421 0 0 0
337 19 4 0.121889 9.84589 12.2509 3.24169 0 0 0
338 19 3 0.046089 11.6639 10.8719 4.08235 0 0 0
339 19 3 0.046089 10.592 10.6997 5.50993 0 0 0
340 19 3 0.033922 11.8911 12.7645 6.30353 0 0 0
341 19 3 0.033922 13.0081 11.3933 6.06059 0 0 0
342 19 3 0.033922 12.8914 12.6266 4.84214 0 0 0
343 20 1 -0.091211 16.2724 18.6387 15.1126 0 -1 0
344 20 1 -0.050311 15.7057 19.6081 13.9991 0 -1 0
345 20 2 -0.174311 14.2017 19.6455 14.1227 0 -1 0
346 20 2 -0.174311 13.2946 18.9426 13.3403 0 -1 0
347 20 1 -0.050311 13.6922 17.894 12.3906 0 -1 0
348 20 1 -0.091211 12.6863 17.5467 11.3533 0 -1 0
349 20 3 0.033922 15.865 17.6401 14.9301 0 -1 0
350 20 3 0.033922 16.0006 19.0771 16.0772 0 -1 0
351 20 3 0.033922 17.36 18.5533 15.0311 0 -1 0
352 20 3 0.046089 16.023 20.6284 14.2331 0 -1 0
353 20 3 0.046089 16.0398 19.3796 12.9829 0 -1 0
354 20 4 0.121889 13.895 20.3108 14.9235 0 -1 0
355 20 4 0.121889 12.255 18.8931 13.6483 0 -1 0
356 20 3 0.046089 13.8009 17.0152 13.0328 0 -1 0
357 20 3 0.046089 14.6651 18.1305 11.95 0 -1 0
358 20 3 0.033922 12.4865 18.4678 10.7982 0 -1 0
359 20 3 0.033922 13.1527 16.8063 10.697 0 -1 0
360 20 3 0.033922 11.7883 17.0991 11.7891 0 -1 0
361 21 1 -0.091211 -0.266233 3.12793 13.9513 0 0 0
362 21 1 -0.050311 0.729257 2.06061 14.3313 0 0 0
363 21 2 -0.174311 0.130606 0.894107 15.0969 0 0 0
364 21 2 -0.174311 0.884469 -0.151727 15.5057 0 0 0
365 21 1 -0.050311 2.29307 -0.443623 15.0242 0 0 0
366 21 1 -0.091211 2.56635 22.6612 15.1565 0 -1 0
367 21 3 0.033922 -1.139 2.58684 13.5744 0 0 0
368 21 3 0.033922 0.00121964 3.74837 13.0911 0 0 0
369 21 3 0.033922 -0.491345 3.71755 14.8447 0 0 0
370 21 3 0.046089 1.16743 1.67224 13.4073 0 0 0
371 21 3 0.046089 1.5399 2.49632 14.9225 0 0 0
372 21 4 0.121889 -0.907449 0.977487 15.4027 0 0 0
373 21 4 0.121889 0.319112 -0.868061 16.0932 0 0 0
374 21 3 0.046089 3.00846 0.181242 15.5667 0 0 0
375 21 3 0.046089 2.39963 -0.135686 13.98 0 0 0
376 21 3 0.033922 1.87 22.1283 14.5026 0 -1 0
377 21 3 0.033922 3.58238 22.4041 14.8432 0 -1 0
378 21 3 0.033922 2.32213 22.3778 16.1844 0 -1 0
379 22 1 -0.091211 9.33272 21.2025 12.6092 0 -1 0
380 22 1 -0.050311 10.269 21.9566 13.5739 0 -1 0
381 22 2 -0.174311 9.95452 -1.18927 13.4444 0 0 0
382 22 2 -0.174311 10.1075 -0.302437 14.469 0 0 0
383 22 1 -0.050311 10.5573 -0.526219 15.8693 0 0 0
384 22 1 -0.091211 9.38517 -0.856536 16.6767 0 0 0
385 22 3 0.033922 8.27976 21.2046 12.9057 0 -1 0
386 22 3 0.033922 9.67709 20.1643 12.6187 0 -1 0
387 22 3 0.033922 9.40825 21.6052 11.595 0 -1 0
388 22 3 0.046089 10.0572 21.6296 14.5961 0 -1 0
389 22 3 0.046089 11.3127 21.9271 13.2477 0 -1 0
390 22 4 0.121889 9.60597 -0.80292 12.492 0 0 0
391 22 4 0.121889 9.90515 0.727511 14.193 0 0 0
392 22 3 0.046089 11.0025 0.378741 16.2928 0 0 0
393 22 3 0.046089 11.3141 -1.31513 15.9059 0 0 0
394 22 3 0.033922 8.54211 -0.159568 16.6856 0 0 0
395 22 3 0.033922 8.96288 22.8596 16.2735 0 -1 0
396 22 3 0.033922 9.72464 -1.09706 17.6884 0 0 0
397 23 1 -0.091211 3.45663 7.62681 20.4593 0 0 -1
398 23 1 -0.050311 4.19211 7.9132 19.1428 0 0 -1
399 23 2 -0.174311 5.64551 8.03498 19.3761 0 0 -1
400 23 2 -0.174311 6.31983 9.19043 19.8453 0 0 -1
401 23 1 -0.050311 5.63942 10.4638 20.0694 0 0 -1
402 23 1 -0.091211 6.35773 11.0938 1.6027 0 0 0
403 23 3 0.033922 2.38493 7.74541 20.2748 0 0 -1
404 23 3 0.033922 3.67906 8.27957 1.65191 0 0 0
405 23 3 0.033922 3.61488 6.57926 1.07506 0 0 0
406 23 3 0.046089 3.96696 7.21648 18.3301 0 0 -1
407 23 3 0.046089 3.79192 8.86163 18.7728 0 0 -1
408 23 4 0.121889 6.16747 7.1093 19.1556 0 0 -1
409 23 4 0.121889 7.35401 9.07665 20.1544 0 0 -1
410 23 3 0.046089 4.58088 10.3717 20.3295 0 0 -1
411 23 3 0.046089 5.76634 11.1756 19.2486 0 0 -1
412 23 3 0.033922 5.84774 11.9313 2.08751 0 0 0
413 23 3 0.033922 6.41171 10.3321 2.38596 0 0 0
414 23 3 0.033922 7.29809 11.5879 1.3416 0 0 0
415 24 1 -0.091211 13.9282 14.1848 1.54313 0 0 0
416 24 1 -0.050311 12.4631 14.4692 1.70913 0 0 0
417 24 2 -0.174311 12.1783 15.7766 0.996477 0 0 0
418 24 2 -0.174311 11.0339 16.5657 1.21161 0 0 0
419 24 1 -0.050311 9.94873 16.1317 2.15108 0 0 0
420 24 1 -0.091211 8.61203 16.8657 2.02945 0 0 0
421 24 3 0.033922 14.2617 13.4319 2.26316 0 0 0
422 24 3 0.033922 14.5511 15.061 1.74544 0 0 0
423 24 3 0.033922 14.2583 13.9532 20.1828 0 0 -1
424 24 3 0.046089 11.9276 13.6366 1.24384 0 0 0
425 24 3 0.046089 12.1105 14.4688 2.74459 0 0 0
426 24 4 0.121889 13.0128 16.0969 20.0373 0 0 -1
427 24 4 0.121889 11.0686 17.5347 20.3804 0 0 -1
428 24 3 0.046089 10.331 16.1333 3.17597 0 0 0
429 24 3 0.046089 9.62956 15.1363 1.82865 0 0 0
430 24 3 0.033922 8.08973 16.5412 1.12476 0 0 0
431 24 3 0.033922 7.96409 16.511 2.83625 0 0 0
432 24 3 0.033922 8.84278 17.9311 2.12049 0 0 0
433 25 1 -0.091211 5.39853 9.95776 15.6528 0 0 0
434 25 1 -0.050311 6.0812 10.0403 14.2942 0 0 0
435 25 2 -0.174311 4.94704 9.90223 13.2634 0 0 0
436 25 2 -0.174311 5.15585 9.83544 11.8679 0 0 0
437 25 1 -0.050311 6.48847 9.55836 11.1511 0 0 0
438 25 1 -0.091211 6.37334 8.12023 10.6136 0 0 0
439 25 3 0.033922 4.95129 10.941 15.825 0 0 0
440 25 3 0.033922 6.11671 9.83134 16.4681 0 0 0
441 25 3 0.033922 4.59218 9.22312 15.7346 0 0 0
442 25 3 0.046089 6.39847 11.0772 14.1502 0 0 0
443 25 3 0.046089 6.90995 9.36139 14.0733 0 0 0
444 25 4 0.121889 3.93605 9.98104 13.6503 0 0 0
445 25 4 0.121889 4.20969 9.74489 11.3439 0 0 0
446 25 3 0.046089 7.34747 9.69893 11.8137 0 0 0
447 25 3 0.046089 6.70062 10.2491 10.3299 0 0 0
448 25 3 0.033922 5.48871 7.96881 9.98823 0 0 0
449 25 3 0.033922 7.2581 7.83383 10.0376 0 0 0
450 25 3 0.033922 6.27353 7.38288 11.4154 0 0 0
451 26 1 -0.091211 -2.78815 22.2201 11.1298 0 -1 0
452 26 1 -0.050311 -1.74933 22.8889 12.0282 0 -1 0
453 26 2 -0.174311 -0.483587 22.0403 12.0039 0 -1 0
454 26 2 -0.174311 0.66702 22.5483 11.4606 0 -1 0
455 26 1 -0.050311 1.08039 -0.692773 11.0489 0 0 0
456 26 1 -0.091211 2.40144 -0.659813 10.3597 0 0 0
457 26 3 0.033922 -2.66633 22.1701 10.0439 0 -1 0
458 26 3 0.033922 41.401 22.7254 11.2838 -1 -1 0
459 26 3 0.033922 42.0637 21.2492 11.538 -1 -1 0
460 26 3 0.046089 -1.55282 -0.722999 11.7144 0 0 0
461 26 3 0.046089 -2.12684 22.9021 13.0548 0 -1 0
462 26 4 0.121889 -0.568773 21.0742 12.491 0 -1 0
463 26 4 0.121889 1.53403 21.8961 11.4921 0 -1 0
464 26 3 0.046089 1.12811 -0.0656382 11.9439 0 0 0
465 26 3 0.046089 0.300106 -0.22044 10.4451 0 0 0
466 26 3 0.033922 2.64292 0.396962 10.2132 0 0 0
467 26 3 0.033922 3.1797 -1.14816 10.9533 0 0 0
468 26 3 0.033922 2.40599 -1.16729 9.39069 0 0 0
469 27 1 -0.091211 16.4073 11.6884 3.62369 0 0 0
470 27 1 -0.050311 17.7242 11.6349 4.40766 0 0 0
471 27 2 -0.174311 17.7564 12.351 5.74057 0 0 0
472 27 2 -0.174311 18.7928 12.2062 6.6786 0 0 0
473 27 1 -0.050311 20.0676 11.4911 6.36841 0 0 0
474 27 1 -0.091211 20.9937 11.6256 7.5638 0 0 0
475 27 3 0.033922 16.4846 11.4675 2.55517 0 0 0
476 27 3 0.033922 15.9917 12.655 3.92277 0 0 0
477 27 3 0.033922 15.7591 10.9003 4.01773 0 0 0
478 27 3 0.046089 18.0416 10.591 4.48602 0 0 0
479 27 3 0.046089 18.5126 12.0361 3.76427 0 0 0
480 27 4 0.121889 16.8894 12.9402 6.02182 0 0 0
481 27 4 0.121889 18.6719 12.7606 7.60375 0 0 0
482 27 3 0.046089 20.5015 11.8765 5.4412 0 0 0
483 27 3 0.046089 19.7489 10.455 6.22197 0 0 0
484 27 3 0.033922 21.035 12.6857 7.8301 0 0 0
485 27 3 0.033922 20.7075 11.1499 8.50629 0 0 0
486 27 3 0.033922 21.9915 11.2505 7.31816 0 0 0
487 28 1 -0.091211 10.0196 0.133319 1.53779 0 0 0
488 28 1 -0.050311 9.141 -1.1873 1.52968 0 0 0
489 28 2 -0.174311 7.84945 -0.89095 20.4883 0 0 -1
490 28 2 -0.174311 7.23051 22.8581 19.6716 0 -1 -1
491 28 1 -0.050311 7.6654 21.4201 19.3707 0 -1 -1
492 28 1 -0.091211 6.46156 20.609 19.2888 0 -1 -1
493 28 3 0.033922 9.53407 0.976264 2.03805 0 0 0
494 28 3 0.033922 10.2328 0.400824 20.1553 0 0 -1
495 28 3 0.033922 10.9572 -0.15812 2.02009 0 0 0
496 28 3 0.046089 9.67911 22.6638 0.997862 0 -1 0
497 28 3 0.046089 8.83366 -1.6048 2.49288 0 0 0
498 28 4 0.121889 7.4086 0.0995684 0.881462 0 0 0
499 28 4 0.121889 6.44084 -1.56216 18.9606 0 0 -1
500 28 3 0.046089 8.37007 21.0665 20.1289 0 -1 -1
501 28 3 0.046089 8.25611 21.2751 18.4615 0 -1 -1
502 28 3 0.033922 6.76733 19.6306 18.907 0 -1 -1
503 28 3 0.033922 5.94378 20.3916 20.2275 0 -1 -1
504 28 3 0.033922 5.77338 21.0904 18.5879 0 -1 -1
505 29 1 -0.091211 7.57089 3.01689 4.92186 0 0 0
506 29 1 -0.050311 6.07753 2.95531 4.51019 0 0 0
507 29 2 -0.174311 5.59238 4.32504 4.2041 0 0 0
508 29 2 -0.174311 4.23814 4.67493 4.04575 0 0 0
509 29 1 -0.050311 3.07344 3.69318 3.91656 0 0 0
510 29 1 -0.091211 1.94291 4.11058 3.06324 0 0 0
511 29 3 0.033922 7.57316 3.44314 5.92923 0 0 0
512 29 3 0.033922 8.20276 3.64961 4.29181 0 0 0
513 29 3 0.033922 7.88352 1.96908 4.89176 0 0 0
514 29 3 0.046089 5.96581 2.24245 3.68809 0 0 0
515 29 3 0.046089 5.49885 2.60245 5.36876 0 0 0
516 29 4 0.121889 6.35987 5.09245 4.20805 0 0 0
517 29 4 0.121889 3.95357 5.69945 3.82823 0 0 0
518 29 3 0.046089 2.57507 3.53328 4.87707 0 0 0
519 29 3 0.046089 3.33341 2.67658 3.60758 0 0 0
520 29 3 0.033922 1.54606 5.04762 3.4645 0 0 0
521 29 3 0.033922 2.47483 4.19026 2.11076 0 0 0
522 29 3 0.033922 1.22169 3.28851 3.03828 0 0 0
523 30 1 -0.091211 6.44966 22.4983 7.96707 0 0 1
524 30 1 -0.050311 7.91254 22.4777 8.28256 0 0 1
525 30 2 -0.174311 8.5253 -0.822944 7.98852 0 1 1
526 30 2 -0.174311 9.32138 -0.578112 6.8435 0 1 1
527 30 1 -0.050311 9.49047 -1.55217 5.74151 0 1 1
528 30 1 -0.091211 10.7086 22.1594 5.877 0 0 1
529 30 3 0.033922 6.28457 22.9399 6.98004 0 0 1
530 30 3 0.033922 5.8854 23.0648 8.71361 0 0 1
531 30 3 0.033922 6.02344 21.4917 8.00634 0 0 1
532 30 3 0.046089 8.0198 22.2822 9.35342 0 0 1
533 30 3 0.046089 8.48755 21.7294 7.72951 0 0 1
534 30 4 0.121889 8.43007 -0.0271316 8.72031 0 1 1
535 30 4 0.121889 9.75123 0.414606 6.75585 0 1 1
536 30 3 0.046089 9.55651 -1.01944 4.78845 0 1 1
537 30 3 0.046089 8.6048 22.4573 5.62659 0 0 1
538 30 3 0.033922 10.7564 21.6303 6.83315 0 0 1
539 30 3 0.033922 10.6152 21.4398 5.05851 0 0 1
540 30 3 0.033922 11.6219 22.7279 5.67903 0 0 1
541 31 1 -0.091211 21.4706 -1.09145 14.9391 0 1 0
542 31 1 -0.050311 21.7893 0.41422 14.7315 0 1 0
543 31 2 -0.174311 23.0752 0.820258 15.2308 0 1 0
544 31 2 -0.174311 23.8858 1.77454 14.626 0 1 0
545 31 1 -0.050311 23.5414 2.54013 13.3318 0 1 0
546 31 1 -0.091211 24.0297 4.04307 13.4115 0 1 0
547 31 3 0.033922 22.2529 22.8824 14.5659 0 0 0
548 31 3 0.033922 20.5075 -1.3322 14.4798 0 1 0
549 31 3 0.033922 21.5407 -1.13302 16.0299 0 1 0
550 31 3 0.046089 21.73 0.591852 13.6538 0 1 0
551 31 3 0.046089 20.9818 1.02877 15.1401 0 1 0
552 31 4 0.121889 23.3461 0.367781 16.1794 0 1 0
553 31 4 0.121889 24.831 2.05061 15.0825 0 1 0
554 31 3 0.046089 22.4668 2.48018 13.1363 0 1 0
555 31 3 0.046089 24.0994 2.1696 12.4669 0 1 0
556 31 3 0.033922 23.7408 4.42327 14.3956 0 1 0
557 31 3 0.033922 25.1125 4.08829 13.2629 0 1 0
558 31 3 0.033922 23.6052 4.63559 12.5958 0 1 0
559 32 1 -0.091211 17.6242 1.40749 3.64742 0 1 0
560 32 1 -0.050311 16.8333 0.277042 4.27312 0 1 0
561 32 2 -0.174311 17.1871 -1.05693 3.74911 0 1 0
562 32 2 -0.174311 16.7869 22.4636 4.42676 0 0 0
563 32 1 -0.050311 15.8453 22.3876 5.57929 0 0 0
564 32 1 -0.091211 16.5624 22.5341 6.90274 0 0 0
565 32 3 0.033922 17.3982 2.40848 4.02619 0 1 0
566 32 3 0.033922 17.2625 1.45453 2.61619 0 1 0
567 32 3 0.033922 18.7132 1.30732 3.6736 0 1 0
568 32 3 0.046089 17.0949 0.241678 5.33463 0 1 0
569 32 3 0.046089 15.7677 0.482137 4.13478 0 1 0
570 32 4 0.121889 17.7363 -1.18856 2.82227 0 1 0
571 32 4 0.121889 16.9654 21.4553 4.06706 0 0 0
572 32 3 0.046089 15.3563 21.4116 5.50902 0 0 0
573 32 3 0.046089 15.1178 -1.43703 5.55587 0 1 0
574 32 3 0.033922 15.8003 22.6353 7.68099 0 0 0
575 32 3 0.033922 17.0798 21.602 7.14751 0 0 0
576 32 3 0.033922 17.1991 -1.21761 6.91106 0 1 0
577 33 1 -0.091211 11.6595 14.4178 14.2513 0 0 0
578 33 1 -0.050311 11.4143 15.3668 15.4305 0 0 0
579 33 2 -0.174311 11.6414 14.6385 16.6957 0 0 0
580 33 2 -0.174311 12.9019 14.5872 17.2762 0 0 0
581 33 1 -0.050311 14.1825 15.1051 16.7287 0 0 0
582 33 1 -0.091211 14.7775 16.1859 17.613 0 0 0
583 33 3 0.033922 11.1953 13.458 14.4959 0 0 0
584 33 3 0.033922 12.7296 14.1908 14.2521 0 0 0
585 33 3 0.033922 11.3693 14.8992 13.3129 0 0 0
586 33 3 0.046089 12.0891 16.2234 15.3443 0 0 0
587 33 3 0.046089 10.4135 15.8074 15.4592 0 0 0
588 33 4 0.121889 10.7574 14.2065 17.154 0 0 0
589 33 4 0.121889 13.0514 13.9707 18.1569 0 0 0
590 33 3 0.046089 14.1837 15.5088 15.7121 0 0 0
591 33 3 0.046089 14.9094 14.2925 16.8175 0 0 0
592 33 3 0.033922 14.1639 17.0911 17.6388 0 0 0
593 33 3 0.033922 14.7906 15.9169 18.6731 0 0 0
594 33 3 0.033922 15.7624 16.3813 17.1789 0 0 0
595 34 1 -0.091211 14.5355 13.9772 11.5075 0 0 0
596 34 1 -0.050311 15.8406 14.5041 11.1364 0 0 0
597 34 2 -0.174311 16.518 15.2529 12.2476 0 0 0
598 34 2 -0.174311 17.1351 16.44 11.9671 0 0 0
599 34 1 -0.050311 17.4429 17.0961 10.6826 0 0 0
600 34 1 -0.091211 18.2375 18.3156 10.8023 0 0 0
601 34 3 0.033922 14.6652 13.3135 12.3672 0 0 0
602 34 3 0.033922 14.0877 13.4122 10.6848 0 0 0
603 34 3 0.033922 13.8927 14.7851 11.8692 0 0 0
604 34 3 0.046089 16.5191 13.6878 10.8719 0 0 0
605 34 3 0.046089 15.7432 15.0983 10.2232 0 0 0
606 34 4 0.121889 16.3407 14.9438 13.2727 0 0 0
607 34 4 0.121889 17.4517 16.927 12.8839 0 0 0
608 34 3 0.046089 16.5039 17.2097 10.1329 0 0 0
609 34 3 0.046089 18.0095 16.384 10.0756 0 0 0
610 34 3 0.033922 19.1082 18.1418 11.4413 0 0 0
611 34 3 0.033922 18.4831 18.6976 9.80713 0 0 0
612 34 3 0.033922 17.6081 19.076 11.2738 0 0 0
613 35 1 -0.091211 36.8348 11.9082 13.407 -1 0 0
614 35 1 -0.050311 37.3762 11.3292 14.685 -1 0 0
615 35 2 -0.174311 36.6334 9.98099 14.8523 -1 0 0
616 35 2 -0.174311 36.5663 9.19045 15.9723 -1 0 0
617 35 1 -0.050311 37.2322 9.59053 17.2396 -1 0 0