ITEM: TIMESTEP
97500
ITEM: NUMBER OF ATOMS
1800
ITEM: BOX BOUNDS pp pp pp
-6.4256807063400920e+00 4.5233696206338550e+01
1.4828421003292611e+00 2.0125813399671102e+01
-3.3864356439523569e-01 2.1592377064394611e+01
ITEM: ATOMS id mol type q x y z ix iy iz
1 1 1 -0.091211 7.60103 7.38289 12.4281 0 -1 0
2 1 1 -0.050311 6.32471 7.46646 13.2804 0 -1 0
3 1 2 -0.174311 6.68451 8.00356 14.6538 0 -1 0
4 1 2 -0.174311 5.95539 8.96082 15.3098 0 -1 0
5 1 1 -0.050311 4.64552 9.62589 14.8874 0 -1 0
6 1 1 -0.091211 3.61838 9.11489 15.9011 0 -1 0
7 1 3 0.033922 8.17607 8.30582 12.3092 0 -1 0
8 1 3 0.033922 7.45163 6.87988 11.4683 0 -1 0
9 1 3 0.033922 8.28236 6.73952 12.9924 0 -1 0
10 1 3 0.046089 5.50397 8.07054 12.8828 0 -1 0
11 1 3 0.046089 5.91282 6.4558 13.3547 0 -1 0
12 1 4 0.121889 7.57928 7.65675 15.1609 0 -1 0
13 1 4 0.121889 6.34921 9.38689 16.227 0 -1 0
14 1 3 0.046089 4.28252 9.372 13.8873 0 -1 0
15 1 3 0.046089 4.71507 10.7174 14.9064 0 -1 0
16 1 3 0.033922 2.66644 9.65373 15.8958 0 -1 0
17 1 3 0.033922 3.38419 8.08032 15.6338 0 -1 0
18 1 3 0.033922 4.0624 9.18206 16.8986 0 -1 0
19 2 1 -0.091211 7.61976 3.96795 10.5895 0 0 0
20 2 1 -0.050311 6.54116 3.49236 11.5948 0 0 0
21 2 2 -0.174311 5.24073 3.01321 10.9437 0 0 0
22 2 2 -0.174311 4.08413 2.6179 11.531 0 0 0
23 2 1 -0.050311 3.91776 2.77952 13.051 0 0 0
24 2 1 -0.091211 2.99043 1.7681 13.6117 0 0 0
25 2 3 0.033922 7.85638 3.25865 9.79107 0 0 0
26 2 3 0.033922 8.52848 4.17937 11.1606 0 0 0
27 2 3 0.033922 7.30982 4.81714 9.97352 0 0 0
28 2 3 0.046089 6.88677 2.73173 12.3009 0 0 0
29 2 3 0.046089 6.37123 4.31794 12.292 0 0 0
30 2 4 0.121889 5.28763 2.93227 9.86243 0 0 0
31 2 4 0.121889 3.22665 2.33812 10.9274 0 0 0
32 2 3 0.046089 3.47145 3.76335 13.2228 0 0 0
33 2 3 0.046089 4.87853 2.66812 13.562 0 0 0
34 2 3 0.033922 2.88345 1.96511 14.6824 0 0 0
35 2 3 0.033922 1.99052 1.8971 13.1873 0 0 0
36 2 3 0.033922 3.29394 19.3666 13.4951 0 -1 0
37 3 1 -0.091211 0.491444 4.82704 18.2126 0 0 0
38 3 1 -0.050311 1.89346 4.40566 18.5638 0 0 0
39 3 2 -0.174311 2.18677 4.33314 20.0567 0 0 0
40 3 2 -0.174311 2.88265 5.33067 20.6808 0 0 0
41 3 1 -0.050311 3.573 6.53432 20.0946 0 0 0
42 3 1 -0.091211 4.89665 6.83095 20.9016 0 0 0
43 3 3 0.033922 -0.231128 4.38002 18.9015 0 0 0
44 3 3 0.033922 0.322312 4.5736 17.162 0 0 0
45 3 3 0.033922 0.415233 5.91448 18.3035 0 0 0
46 3 3 0.046089 1.95458 3.38038 18.1874 0 0 0
47 3 3 0.046089 2.67954 4.97796 18.0627 0 0 0
48 3 4 0.121889 1.66922 3.55312 20.606 0 0 0
49 3 4 0.121889 2.83846 5.38181 -0.166994 0 0 1
50 3 3 0.046089 2.95926 7.42521 20.2566 0 0 0
51 3 3 0.046089 3.77644 6.41211 19.0268 0 0 0
52 3 3 0.033922 5.21994 7.87239 20.815 0 0 0
53 3 3 0.033922 4.72778 6.53878 0.011118 0 0 1
54 3 3 0.033922 5.60111 6.16201 20.3988 0 0 0
55 4 1 -0.091211 -4.04997 18.7373 15.4425 0 -1 0
56 4 1 -0.050311 -2.52847 18.8598 15.7979 0 -1 0
57 4 2 -0.174311 -1.96117 17.6399 16.4792 0 -1 0
58 4 2 -0.174311 -0.650067 17.3323 16.8369 0 -1 0
59 4 1 -0.050311 0.493314 18.3894 16.8292 0 -1 0
60 4 1 -0.091211 1.21036 18.6108 18.1438 0 -1 0
61 4 3 0.033922 -4.48029 17.8726 14.929 0 -1 0
62 4 3 0.033922 -4.31972 19.6135 14.8458 0 -1 0
63 4 3 0.033922 -4.61787 18.8098 16.3746 0 -1 0
64 4 3 0.046089 -2.0371 19.0125 14.8326 0 -1 0
65 4 3 0.046089 -2.4585 19.7279 16.4598 0 -1 0
66 4 4 0.121889 -2.58277 16.7502 16.4757 0 -1 0
67 4 4 0.121889 -0.379998 16.3162 17.1065 0 -1 0
68 4 3 0.046089 0.135326 19.2939 16.329 0 -1 0
69 4 3 0.046089 1.26411 17.9897 16.1639 0 -1 0
70 4 3 0.033922 1.4932 17.7353 18.7354 0 -1 0
71 4 3 0.033922 2.1858 19.0565 17.9284 0 -1 0
72 4 3 0.033922 0.615254 19.1885 18.857 0 -1 0
73 5 1 -0.091211 -3.9205 7.75425 12.2828 0 0 0
74 5 1 -0.050311 -3.69296 8.37444 10.9647 0 0 0
75 5 2 -0.174311 -4.69358 7.88447 9.95908 0 0 0
76 5 2 -0.174311 -4.70836 8.31948 8.65405 0 0 0
77 5 1 -0.050311 -3.62253 9.30241 8.18236 0 0 0
78 5 1 -0.091211 -4.24601 10.067 6.95426 0 0 0
79 5 3 0.033922 -4.9215 7.91672 12.6929 0 0 0
80 5 3 0.033922 -3.30957 8.25562 13.0391 0 0 0
81 5 3 0.033922 -3.68557 6.68593 12.2719 0 0 0
82 5 3 0.046089 -3.77128 9.45351 11.1262 0 0 0
83 5 3 0.046089 -2.66038 8.19022 10.6542 0 0 0
84 5 4 0.121889 -5.59593 7.46129 10.3888 0 0 0
85 5 4 0.121889 -5.37175 7.98442 7.86309 0 0 0
86 5 3 0.046089 -2.70685 8.80753 7.84593 0 0 0
87 5 3 0.046089 -3.25669 9.84165 9.06097 0 0 0
88 5 3 0.033922 -4.99595 10.7668 7.33445 0 0 0
89 5 3 0.033922 -3.44626 10.7007 6.55995 0 0 0
90 5 3 0.033922 -4.61763 9.34561 6.22076 0 0 0
91 6 1 -0.091211 6.67469 2.28889 2.11783 0 0 1
92 6 1 -0.050311 6.69208 3.8133 2.27012 0 0 1
93 6 2 -0.174311 5.33958 4.38905 1.90462 0 0 1
94 6 2 -0.174311 4.31804 4.82984 2.80128 0 0 1
95 6 1 -0.050311 4.57789 5.1955 4.14708 0 0 1
96 6 1 -0.091211 3.36179 4.9727 5.01067 0 0 1
97 6 3 0.033922 5.84225 1.95864 2.74596 0 0 1
98 6 3 0.033922 7.63579 1.79819 2.29691 0 0 1
99 6 3 0.033922 6.33562 2.00602 1.11703 0 0 1
100 6 3 0.046089 7.00566 4.05889 3.28891 0 0 1
101 6 3 0.046089 7.39948 4.19176 1.52652 0 0 1
102 6 4 0.121889 5.16047 4.27349 0.840415 0 0 1
103 6 4 0.121889 3.34253 5.04636 2.37766 0 0 1
104 6 3 0.046089 4.92783 6.22883 4.06726 0 0 1
105 6 3 0.046089 5.36493 4.56501 4.57089 0 0 1
106 6 3 0.033922 3.49092 5.20607 6.07153 0 0 1
107 6 3 0.033922 2.58763 5.62744 4.60009 0 0 1
108 6 3 0.033922 3.10427 3.91425 4.9107 0 0 1
109 7 1 -0.091211 31.2556 5.70983 14.512 -1 1 -1
110 7 1 -0.050311 30.8107 7.17945 14.9645 -1 1 -1
111 7 2 -0.174311 31.7603 7.76537 15.8493 -1 1 -1
112 7 2 -0.174311 32.5015 8.86937 15.6824 -1 1 -1
113 7 1 -0.050311 32.1945 9.82674 14.4952 -1 1 -1
114 7 1 -0.091211 33.1569 11.0517 14.5874 -1 1 -1
115 7 3 0.033922 31.5154 5.11479 15.3923 -1 1 -1
116 7 3 0.033922 32.1015 5.81208 13.826 -1 1 -1
117 7 3 0.033922 30.4954 5.07392 14.049 -1 1 -1
118 7 3 0.046089 30.5774 7.87024 14.149 -1 1 -1
119 7 3 0.046089 29.885 7.05658 15.5342 -1 1 -1
120 7 4 0.121889 31.9788 7.0893 16.6697 -1 1 -1
121 7 4 0.121889 33.2567 9.20311 16.3869 -1 1 -1
122 7 3 0.046089 31.1791 10.196 14.6657 -1 1 -1
123 7 3 0.046089 32.2181 9.43876 13.4728 -1 1 -1
124 7 3 0.033922 34.0815 10.7401 14.0929 -1 1 -1
125 7 3 0.033922 32.6888 11.8423 13.9937 -1 1 -1
126 7 3 0.033922 33.2487 11.3346 15.64 -1 1 -1
127 8 1 -0.091211 44.2508 11.5872 4.86009 -1 0 1
128 8 1 -0.050311 43.1342 10.7622 5.37989 -1 0 1
129 8 2 -0.174311 41.8637 10.7847 4.56651 -1 0 1
130 8 2 -0.174311 40.6719 10.0722 4.72584 -1 0 1
131 8 1 -0.050311 40.4435 9.28843 5.93193 -1 0 1
132 8 1 -0.091211 40.0143 7.86584 5.66906 -1 0 1
133 8 3 0.033922 44.0273 12.6319 4.62496 -1 0 1
134 8 3 0.033922 44.6815 11.1024 3.9792 -1 0 1
135 8 3 0.033922 45.0457 11.4915 5.60538 -1 0 1
136 8 3 0.046089 43.4099 9.72219 5.57731 -1 0 1
137 8 3 0.046089 42.8578 11.1979 6.34445 -1 0 1
138 8 4 0.121889 41.9345 11.4233 3.69183 -1 0 1
139 8 4 0.121889 39.9196 10.1659 3.94918 -1 0 1
140 8 3 0.046089 39.6492 9.79946 6.4838 -1 0 1
141 8 3 0.046089 41.276 9.32845 6.6404 -1 0 1
142 8 3 0.033922 39.6074 7.41688 6.57978 -1 0 1
143 8 3 0.033922 39.2534 7.75625 4.89092 -1 0 1
144 8 3 0.033922 40.8687 7.25961 5.35421 -1 0 1
145 9 1 -0.091211 34.9956 4.41316 14.1105 -1 1 0
146 9 1 -0.050311 35.7746 5.21401 15.2081 -1 1 0
147 9 2 -0.174311 35.0764 6.44262 15.7271 -1 1 0
148 9 2 -0.174311 35.3154 7.05472 16.9754 -1 1 0
149 9 1 -0.050311 36.3719 6.63034 17.9329 -1 1 0
150 9 1 -0.091211 37.5544 7.60062 17.8668 -1 1 0
151 9 3 0.033922 34.0321 4.10416 14.5261 -1 1 0
152 9 3 0.033922 35.5833 3.55946 13.7607 -1 1 0
153 9 3 0.033922 34.8308 5.08023 13.2594 -1 1 0
154 9 3 0.046089 36.0405 4.56745 16.0495 -1 1 0
155 9 3 0.046089 36.7141 5.54059 14.7529 -1 1 0
156 9 4 0.121889 34.3611 6.78379 14.9856 -1 1 0
157 9 4 0.121889 34.7971 7.98624 17.1796 -1 1 0
158 9 3 0.046089 36.6229 5.57134 17.8228 -1 1 0
159 9 3 0.046089 35.9612 6.73304 18.9415 -1 1 0
160 9 3 0.033922 37.2224 8.64246 17.8362 -1 1 0
161 9 3 0.033922 38.1192 7.60459 18.8036 -1 1 0
162 9 3 0.033922 38.1525 7.25534 17.0185 -1 1 0
163 10 1 -0.091211 11.8427 6.99991 9.3184 0 0 1
164 10 1 -0.050311 10.9281 7.55227 8.22387 0 0 1
165 10 2 -0.174311 9.64081 6.83823 8.25735 0 0 1
166 10 2 -0.174311 9.05247 6.08984 7.20645 0 0 1
167 10 1 -0.050311 9.45696 6.06283 5.7397 0 0 1
168 10 1 -0.091211 8.2351 6.52239 4.95919 0 0 1
169 10 3 0.033922 12.1541 5.97907 9.07852 0 0 1
170 10 3 0.033922 11.3509 7.11136 10.2891 0 0 1
171 10 3 0.033922 12.7503 7.60602 9.39303 0 0 1
172 10 3 0.046089 10.6551 8.59531 8.40877 0 0 1
173 10 3 0.046089 11.2983 7.47143 7.19774 0 0 1
174 10 4 0.121889 9.04339 6.80649 9.16291 0 0 1
175 10 4 0.121889 8.24565 5.40525 7.44803 0 0 1
176 10 3 0.046089 9.73191 5.04369 5.4527 0 0 1
177 10 3 0.046089 10.2896 6.73124 5.50181 0 0 1
178 10 3 0.033922 8.46547 6.6733 3.90054 0 0 1
179 10 3 0.033922 7.46632 5.74964 5.0509 0 0 1
180 10 3 0.033922 7.78774 7.42747 5.38025 0 0 1
181 11 1 -0.091211 -1.74686 13.5654 19.1502 0 0 0
182 11 1 -0.050311 -2.68295 12.8996 20.22 0 0 0
183 11 2 -0.174311 -4.0301 12.9557 19.6473 0 0 0
184 11 2 -0.174311 -5.23231 13.1643 20.3695 0 0 0
185 11 1 -0.050311 -5.23062 13.4929 -0.0944858 0 0 1
186 11 1 -0.091211 45.1141 13.1701 0.582535 -1 0 1
187 11 3 0.033922 -1.85537 13.1892 18.1288 0 0 0
188 11 3 0.033922 -0.711831 13.4806 19.4938 0 0 0
189 11 3 0.033922 -2.02519 14.623 19.1254 0 0 0
190 11 3 0.046089 -2.41435 11.8811 20.5151 0 0 0
191 11 3 0.046089 -2.68437 13.494 21.1383 0 0 0
192 11 4 0.121889 -4.14217 12.6688 18.6066 0 0 0
193 11 4 0.121889 -6.20968 13.0513 19.9113 0 0 0
194 11 3 0.046089 -4.9128 14.5327 0.0256046 0 0 1
195 11 3 0.046089 -4.49168 12.9354 0.488351 0 0 1
196 11 3 0.033922 44.4048 13.8635 0.121279 -1 0 1
197 11 3 0.033922 44.8252 12.1356 0.375448 -1 0 1
198 11 3 0.033922 45.3148 13.2693 1.65326 -1 0 1
199 12 1 -0.091211 5.917 7.87152 8.3667 0 0 0
200 12 1 -0.050311 5.01571 7.2732 9.35002 0 0 0
201 12 2 -0.174311 4.01396 8.2366 9.91714 0 0 0
202 12 2 -0.174311 2.96499 7.71049 10.6875 0 0 0
203 12 1 -0.050311 2.81857 6.33859 11.2973 0 0 0
204 12 1 -0.091211 1.80351 6.41341 12.4889 0 0 0
205 12 3 0.033922 6.57534 7.10712 7.94377 0 0 0
206 12 3 0.033922 6.53171 8.60959 8.89014 0 0 0
207 12 3 0.033922 5.33938 8.38848 7.59488 0 0 0
208 12 3 0.046089 4.41295 6.49877 8.86677 0 0 0
209 12 3 0.046089 5.66049 6.7734 10.0787 0 0 0
210 12 4 0.121889 3.99346 9.26832 9.58079 0 0 0
211 12 4 0.121889 2.21206 8.4571 10.9191 0 0 0
212 12 3 0.046089 3.79693 5.99904 11.6495 0 0 0
213 12 3 0.046089 2.49936 5.5846 10.5719 0 0 0
214 12 3 0.033922 2.15057 7.2344 13.123 0 0 0
215 12 3 0.033922 0.791547 6.70931 12.1974 0 0 0
216 12 3 0.033922 1.69376 5.46972 13.0311 0 0 0
217 13 1 -0.091211 -2.32453 12.8469 8.78301 0 0 1
218 13 1 -0.050311 -1.24254 12.9836 9.88696 0 0 1
219 13 2 -0.174311 -1.13779 11.6993 10.655 0 0 1
220 13 2 -0.174311 -0.269678 11.2259 11.695 0 0 1
221 13 1 -0.050311 0.917577 11.9834 12.2549 0 0 1
222 13 1 -0.091211 2.10823 11.0613 12.5428 0 0 1
223 13 3 0.033922 -2.66724 13.8623 8.56386 0 0 1
224 13 3 0.033922 -3.2318 12.3329 9.11355 0 0 1
225 13 3 0.033922 -1.92639 12.3755 7.87976 0 0 1
226 13 3 0.046089 -0.260817 13.1996 9.45555 0 0 1
227 13 3 0.046089 -1.52423 13.7558 10.6087 0 0 1
228 13 4 0.121889 -1.96884 11.0222 10.485 0 0 1
229 13 4 0.121889 -0.667978 10.3243 12.1494 0 0 1
230 13 3 0.046089 0.549278 12.524 13.1317 0 0 1
231 13 3 0.046089 1.18039 12.7034 11.4745 0 0 1
232 13 3 0.033922 2.50598 10.5926 11.6379 0 0 1
233 13 3 0.033922 2.88095 11.6119 13.0871 0 0 1
234 13 3 0.033922 1.73012 10.3039 13.2356 0 0 1
235 14 1 -0.091211 15.3714 8.58749 4.95614 0 0 0
236 14 1 -0.050311 15.2562 7.02138 4.98841 0 0 0
237 14 2 -0.174311 15.7573 6.35107 6.19577 0 0 0
238 14 2 -0.174311 16.7554 5.43657 6.14677 0 0 0
239 14 1 -0.050311 17.3851 4.93622 4.9002 0 0 0
240 14 1 -0.091211 18.3384 3.82403 5.12918 0 0 0
241 14 3 0.033922 16.2922 8.95889 5.4151 0 0 0
242 14 3 0.033922 14.66 9.16347 5.55514 0 0 0
243 14 3 0.033922 15.2904 8.90979 3.91395 0 0 0
244 14 3 0.046089 14.2009 6.76108 4.86511 0 0 0
245 14 3 0.046089 15.7337 6.67162 4.06853 0 0 0
246 14 4 0.121889 15.3262 6.66999 7.13941 0 0 0
247 14 4 0.121889 16.9971 5.00238 7.11167 0 0 0
248 14 3 0.046089 17.9211 5.77831 4.45268 0 0 0
249 14 3 0.046089 16.5469 4.64548 4.26032 0 0 0
250 14 3 0.033922 17.8342 3.03539 5.69525 0 0 0
251 14 3 0.033922 18.7449 3.44091 4.1887 0 0 0
252 14 3 0.033922 19.137 4.20294 5.77351 0 0 0
253 15 1 -0.091211 -0.563013 19.6628 3.23273 0 0 1
254 15 1 -0.050311 -0.981096 1.83163 2.0266 0 1 1
255 15 2 -0.174311 -0.379228 3.23804 2.11295 0 1 1
256 15 2 -0.174311 -0.552286 4.18858 1.0833 0 1 1
257 15 1 -0.050311 -1.5061 4.01766 -0.0961796 0 1 1
258 15 1 -0.091211 -2.53387 5.12243 0.0294751 0 1 1
259 15 3 0.033922 0.522109 19.5614 3.32651 0 0 1
260 15 3 0.033922 -1.04565 18.6814 3.25689 0 0 1
261 15 3 0.033922 -0.942796 20.1125 4.15473 0 0 1
262 15 3 0.046089 -0.625978 19.9951 1.1098 0 0 1
263 15 3 0.046089 -2.07141 1.90923 2.06847 0 1 1
264 15 4 0.121889 0.256958 3.40676 2.97595 0 1 1
265 15 4 0.121889 -0.0545285 5.15172 1.13421 0 1 1
266 15 3 0.046089 -1.95393 3.02002 -0.124316 0 1 1
267 15 3 0.046089 -0.877363 4.04693 20.9402 0 1 0
268 15 3 0.033922 -2.84018 5.33522 1.05781 0 1 1
269 15 3 0.033922 -2.07386 6.07039 -0.264404 0 1 1
270 15 3 0.033922 -3.37973 4.92986 21.2942 0 1 0
271 16 1 -0.091211 7.82223 2.21099 5.77095 0 1 0
272 16 1 -0.050311 8.77553 19.8777 5.01701 0 0 0
273 16 2 -0.174311 9.8938 1.9883 4.31302 0 1 0
274 16 2 -0.174311 11.0285 2.50974 4.94819 0 1 0
275 16 1 -0.050311 11.2853 2.5104 6.45457 0 1 0
276 16 1 -0.091211 12.428 3.59298 6.69841 0 1 0
277 16 3 0.033922 7.51407 2.96714 5.04302 0 1 0
278 16 3 0.033922 8.21387 2.68869 6.67372 0 1 0
279 16 3 0.033922 6.91841 20.3256 6.08795 0 0 0
280 16 3 0.046089 9.243 19.1306 5.66493 0 0 0
281 16 3 0.046089 8.16331 19.2705 4.34397 0 0 0
282 16 4 0.121889 9.78528 2.30431 3.28039 0 1 0
283 16 4 0.121889 11.7896 2.97825 4.33242 0 1 0
284 16 3 0.046089 11.5456 20.1223 6.71109 0 0 0
285 16 3 0.046089 10.3964 2.84215 6.99894 0 1 0
286 16 3 0.033922 13.2091 3.56323 5.93321 0 1 0
287 16 3 0.033922 11.9806 4.58195 6.83387 0 1 0
288 16 3 0.033922 12.9757 3.5026 7.64094 0 1 0
289 17 1 -0.091211 6.27533 12.5828 10.6186 0 0 0
290 17 1 -0.050311 7.86069 12.5632 10.4629 0 0 0
291 17 2 -0.174311 8.51097 11.3418 11.1679 0 0 0
292 17 2 -0.174311 9.84192 11.1232 11.3274 0 0 0
293 17 1 -0.050311 10.9413 12.0445 10.818 0 0 0
294 17 1 -0.091211 12.1752 12.0014 11.7445 0 0 0
295 17 3 0.033922 5.96479 13.2196 9.78517 0 0 0
296 17 3 0.033922 5.88786 12.9967 11.5541 0 0 0
297 17 3 0.033922 5.86303 11.5773 10.4933 0 0 0
298 17 3 0.046089 8.08 12.279 9.42959 0 0 0
299 17 3 0.046089 8.35125 13.4951 10.7587 0 0 0
300 17 4 0.121889 7.82757 10.5631 11.4913 0 0 0
301 17 4 0.121889 10.1559 10.1508 11.6931 0 0 0
302 17 3 0.046089 10.5424 13.0595 10.732 0 0 0
303 17 3 0.046089 11.2883 11.6954 9.84118 0 0 0
304 17 3 0.033922 11.8548 12.1344 12.7819 0 0 0
305 17 3 0.033922 12.5995 10.9936 11.7144 0 0 0
306 17 3 0.033922 12.9855 12.6995 11.5148 0 0 0
307 18 1 -0.091211 39.3603 3.95325 15.0339 -1 0 1
308 18 1 -0.050311 39.8418 3.21859 13.7952 -1 0 1
309 18 2 -0.174311 38.9356 3.18714 12.5766 -1 0 1
310 18 2 -0.174311 38.9279 4.15309 11.5184 -1 0 1
311 18 1 -0.050311 39.7129 5.47268 11.5144 -1 0 1
312 18 1 -0.091211 38.7162 6.62772 11.8168 -1 0 1
313 18 3 0.033922 39.991 3.85144 15.9218 -1 0 1
314 18 3 0.033922 38.3568 3.64966 15.3459 -1 0 1
315 18 3 0.033922 39.3869 5.01684 14.7795 -1 0 1
316 18 3 0.046089 40.8121 3.6157 13.4833 -1 0 1
317 18 3 0.046089 39.9727 2.19014 14.1442 -1 0 1
318 18 4 0.121889 38.3669 2.27398 12.4328 -1 0 1
319 18 4 0.121889 38.3086 3.8577 10.6775 -1 0 1
320 18 3 0.046089 40.0919 5.6235 10.4994 -1 0 1
321 18 3 0.046089 40.4664 5.49805 12.3069 -1 0 1
322 18 3 0.033922 37.8324 6.40091 11.2134 -1 0 1
323 18 3 0.033922 38.4113 6.67415 12.8663 -1 0 1
324 18 3 0.033922 39.0968 7.60553 11.5075 -1 0 1
325 19 1 -0.091211 7.58809 10.5673 2.64121 0 0 0
326 19 1 -0.050311 8.28584 9.90208 1.46185 0 0 0
327 19 2 -0.174311 7.66311 8.55479 1.16684 0 0 0
328 19 2 -0.174311 7.84455 7.80668 0.00921187 0 0 0
329 19 1 -0.050311 8.80556 8.19944 20.796 0 0 -1
330 19 1 -0.091211 8.0083 8.8914 19.6601 0 0 -1
331 19 3 0.033922 8.03044 11.56 2.76564 0 0 0
332 19 3 0.033922 7.73671 9.95448 3.53506 0 0 0
333 19 3 0.033922 6.52845 10.7698 2.46033 0 0 0
334 19 3 0.046089 8.03325 10.5394 0.609416 0 0 0
335 19 3 0.046089 9.37388 9.86352 1.56792 0 0 0
336 19 4 0.121889 6.90073 8.15751 1.82934 0 0 0
337 19 4 0.121889 7.31987 6.85904 -0.059183 0 0 0
338 19 3 0.046089 9.28624 7.28848 20.4276 0 0 -1
339 19 3 0.046089 9.53267 8.9637 21.0855 0 0 -1
340 19 3 0.033922 7.49534 9.74738 20.1081 0 0 -1
341 19 3 0.033922 8.68768 9.19535 18.8584 0 0 -1
342 19 3 0.033922 7.20631 8.25839 19.2693 0 0 -1
343 20 1 -0.091211 15.4101 19.7219 6.52825 0 -1 0
344 20 1 -0.050311 15.1235 1.53933 5.08666 0 0 0
345 20 2 -0.174311 16.1457 19.588 4.17831 0 -1 0
346 20 2 -0.174311 16.1955 19.7763 2.82129 0 -1 0
347 20 1 -0.050311 15.3138 1.93665 1.97258 0 0 0
348 20 1 -0.091211 14.5674 19.714 0.971163 0 -1 0
349 20 3 0.033922 16.3042 20.1722 6.96913 0 -1 0
350 20 3 0.033922 15.6654 18.6604 6.45922 0 -1 0
351 20 3 0.033922 14.5035 1.33968 7.082 0 0 0
352 20 3 0.046089 14.1232 19.7885 4.88462 0 -1 0
353 20 3 0.046089 15.0458 2.62847 5.02065 0 0 0
354 20 4 0.121889 16.8744 18.8666 4.5341 0 -1 0
355 20 4 0.121889 17.0079 19.3749 2.22381 0 -1 0
356 20 3 0.046089 15.9008 2.61254 1.34395 0 0 0
357 20 3 0.046089 14.6771 2.61833 2.54404 0 0 0
358 20 3 0.033922 15.0946 19.2766 0.118369 0 -1 0
359 20 3 0.033922 14.1224 18.8855 1.52992 0 -1 0
360 20 3 0.033922 13.7457 1.64753 0.536339 0 0 0
361 21 1 -0.091211 -4.89112 19.6428 1.29117 0 -1 1
362 21 1 -0.050311 -6.28511 19.2916 1.8221 0 -1 1
363 21 2 -0.174311 45.0595 20.0468 3.10511 -1 -1 1
364 21 2 -0.174311 43.7735 1.71975 3.54974 -1 0 1
365 21 1 -0.050311 42.5351 1.61074 2.63961 -1 0 1
366 21 1 -0.091211 41.2552 1.48873 3.38978 -1 0 1
367 21 3 0.033922 -4.21337 19.0818 1.94116 0 -1 1
368 21 3 0.033922 -4.67225 2.06467 1.16953 0 0 1
369 21 3 0.033922 -4.8174 19.1943 0.296152 0 -1 1
370 21 3 0.046089 44.686 19.5944 1.02768 -1 -1 1
371 21 3 0.046089 45.2754 18.2173 2.00319 -1 -1 1
372 21 4 0.121889 -5.81463 20.2885 3.81422 0 -1 1
373 21 4 0.121889 43.6526 2.20373 4.51364 -1 0 1
374 21 3 0.046089 42.6137 19.444 1.90828 -1 -1 1
375 21 3 0.046089 42.5594 2.50303 2.00728 -1 0 1
376 21 3 0.033922 41.2309 2.16698 4.24767 -1 0 1
377 21 3 0.033922 40.3857 1.70638 2.76275 -1 0 1
378 21 3 0.033922 41.1945 19.1573 3.88313 -1 -1 1
379 22 1 -0.091211 6.27735 14.3043 21.0752 0 -1 0
380 22 1 -0.050311 6.06611 13.9702 19.5445 0 -1 0
381 22 2 -0.174311 6.9696 12.8349 19.1743 0 -1 0
382 22 2 -0.174311 7.26577 12.4857 17.8484 0 -1 0
383 22 1 -0.050311 6.62788 13.0648 16.572 0 -1 0
384 22 1 -0.091211 7.77459 13.432 15.6401 0 -1 0
385 22 3 0.033922 5.46555 14.9652 21.3926 0 -1 0
386 22 3 0.033922 7.23335 14.8204 21.203 0 -1 0
387 22 3 0.033922 6.22687 13.333 -0.35529 0 -1 1
388 22 3 0.046089 5.0398 13.6004 19.4638 0 -1 0
389 22 3 0.046089 6.07076 14.8317 18.8704 0 -1 0
390 22 4 0.121889 7.43185 12.1611 19.8886 0 -1 0
391 22 4 0.121889 8.05923 11.7744 17.6422 0 -1 0
392 22 3 0.046089 5.95977 13.912 16.7522 0 -1 0
393 22 3 0.046089 6.07722 12.1785 16.2437 0 -1 0
394 22 3 0.033922 8.58828 12.7028 15.5872 0 -1 0
395 22 3 0.033922 7.40236 13.587 14.6233 0 -1 0
396 22 3 0.033922 8.23473 14.3811 15.93 0 -1 0
397 23 1 -0.091211 3.64661 8.67341 2.21577 0 0 0
398 23 1 -0.050311 2.41537 8.44295 3.09475 0 0 0
399 23 2 -0.174311 1.34254 9.47294 2.9752 0 0 0
400 23 2 -0.174311 0.0041736 9.39937 2.95851 0 0 0
401 23 1 -0.050311 -0.600634 8.0944 3.36572 0 0 0
402 23 1 -0.091211 -1.90139 8.01423 2.56731 0 0 0
403 23 3 0.033922 4.01856 9.65326 2.52908 0 0 0
404 23 3 0.033922 3.29155 8.63237 1.18194 0 0 0
405 23 3 0.033922 4.37427 7.89983 2.47784 0 0 0
406 23 3 0.046089 1.96758 7.45833 2.93156 0 0 0
407 23 3 0.046089 2.76903 8.49681 4.12848 0 0 0
408 23 4 0.121889 1.66521 10.4472 2.62215 0 0 0
409 23 4 0.121889 -0.521201 10.3138 2.70191 0 0 0
410 23 3 0.046089 -0.806047 8.11643 4.43991 0 0 0
411 23 3 0.046089 -0.00906365 7.20251 3.13947 0 0 0
412 23 3 0.033922 -2.30907 7.01394 2.74003 0 0 0
413 23 3 0.033922 -2.5962 8.81217 2.84503 0 0 0
414 23 3 0.033922 -1.77766 8.14206 1.488 0 0 0
415 24 1 -0.091211 2.10528 17.0449 3.18268 0 0 0
416 24 1 -0.050311 3.52033 16.6408 2.93806 0 0 0
417 24 2 -0.174311 4.47956 17.5396 3.74527 0 0 0
418 24 2 -0.174311 5.65077 17.1647 4.2618 0 0 0
419 24 1 -0.050311 6.31664 15.8277 4.0374 0 0 0
420 24 1 -0.091211 7.27061 15.5419 5.1283 0 0 0
421 24 3 0.033922 1.9885 17.3544 4.22532 0 0 0
422 24 3 0.033922 1.4014 16.2505 2.91779 0 0 0
423 24 3 0.033922 1.85139 17.9587 2.63763 0 0 0
424 24 3 0.046089 3.55257 15.5723 3.16991 0 0 0
425 24 3 0.046089 3.82977 16.7194 1.89181 0 0 0
426 24 4 0.121889 4.11854 18.5334 3.99028 0 0 0
427 24 4 0.121889 6.14076 17.9366 4.8467 0 0 0
428 24 3 0.046089 6.88697 15.7734 3.10555 0 0 0
429 24 3 0.046089 5.50226 15.0974 4.04504 0 0 0
430 24 3 0.033922 7.83513 16.4265 5.43725 0 0 0
431 24 3 0.033922 6.72118 15.0931 5.96094 0 0 0
432 24 3 0.033922 7.92739 14.7542 4.74768 0 0 0
433 25 1 -0.091211 -4.74266 1.89222 19.2487 0 0 0
434 25 1 -0.050311 -3.40649 19.7773 19.4398 0 -1 0
435 25 2 -0.174311 -3.59079 18.3325 19.3004 0 -1 0
436 25 2 -0.174311 -3.14839 17.3984 20.2545 0 -1 0
437 25 1 -0.050311 -2.24301 17.6165 21.4673 0 -1 0
438 25 1 -0.091211 -2.56338 16.7208 0.738098 0 -1 1
439 25 3 0.033922 -5.44985 1.66462 20.0516 0 0 0
440 25 3 0.033922 -5.2203 1.66167 18.292 0 0 0
441 25 3 0.033922 -4.58795 2.97457 19.2834 0 0 0
442 25 3 0.046089 -2.64364 20.0262 18.6964 0 -1 0
443 25 3 0.046089 -3.14146 1.47703 20.4443 0 0 0
444 25 4 0.121889 -4.17497 17.9021 18.4933 0 -1 0
445 25 4 0.121889 -3.44393 16.361 20.1343 0 -1 0
446 25 3 0.046089 -2.30289 18.6221 -0.0374561 0 -1 1
447 25 3 0.046089 -1.20257 17.5238 21.1426 0 -1 0
448 25 3 0.033922 -2.06206 15.7673 0.547761 0 -1 1
449 25 3 0.033922 -2.17133 17.0238 1.71331 0 -1 1
450 25 3 0.033922 -3.63631 16.5223 0.8155 0 -1 1
451 26 1 -0.091211 -5.66808 14.3381 7.19961 0 -1 1
452 26 1 -0.050311 45.2451 15.5881 6.70629 -1 -1 1
453 26 2 -0.174311 -6.33014 15.7452 5.20989 0 -1 1
454 26 2 -0.174311 44.2562 15.7246 4.32858 -1 -1 1
455 26 1 -0.050311 42.7836 15.6165 4.76625 -1 -1 1
456 26 1 -0.091211 41.9108 15.8763 3.51895 -1 -1 1
457 26 3 0.033922 -5.66664 14.2257 8.2877 0 -1 1
458 26 3 0.033922 -4.61164 14.3893 6.92057 0 -1 1
459 26 3 0.033922 -6.15707 13.449 6.79097 0 -1 1
460 26 3 0.046089 44.1895 15.4299 6.94591 -1 -1 1
461 26 3 0.046089 -6.0086 16.4816 7.18962 0 -1 1
462 26 4 0.121889 -5.40037 15.9956 4.7091 0 -1 1
463 26 4 0.121889 44.4843 15.791 3.26957 -1 -1 1
464 26 3 0.046089 42.4819 16.3195 5.54814 -1 -1 1
465 26 3 0.046089 42.6369 14.5924 5.12151 -1 -1 1
466 26 3 0.033922 41.0226 15.2574 3.67618 -1 -1 1
467 26 3 0.033922 41.6937 16.9352 3.35115 -1 -1 1
468 26 3 0.033922 42.3013 15.5389 2.55446 -1 -1 1
469 27 1 -0.091211 16.1876 15.7189 -0.124539 0 0 0
470 27 1 -0.050311 14.6819 15.7276 0.191474 0 0 0
471 27 2 -0.174311 14.4813 14.5996 1.20237 0 0 0
472 27 2 -0.174311 14.5581 14.8009 2.52457 0 0 0
473 27 1 -0.050311 14.8153 16.1248 3.31832 0 0 0
474 27 1 -0.091211 15.5019 15.7591 4.57176 0 0 0
475 27 3 0.033922 16.3948 16.5613 21.1402 0 0 -1
476 27 3 0.033922 16.6359 14.8007 21.4159 0 0 -1
477 27 3 0.033922 16.6876 15.8464 0.83999 0 0 0
478 27 3 0.046089 14.51 16.6765 0.707905 0 0 0
479 27 3 0.046089 14.0382 15.6464 21.2418 0 0 -1
480 27 4 0.121889 14.2978 13.6129 0.789087 0 0 0
481 27 4 0.121889 14.3958 13.9347 3.15813 0 0 0
482 27 3 0.046089 13.8903 16.6441 3.58508 0 0 0
483 27 3 0.046089 15.4807 16.7476 2.71325 0 0 0
484 27 3 0.033922 16.4269 15.2208 4.34548 0 0 0
485 27 3 0.033922 15.6916 16.6886 5.11638 0 0 0
486 27 3 0.033922 14.8705 15.2055 5.27274 0 0 0
487 28 1 -0.091211 9.76353 17.4784 2.3577 0 -1 0
488 28 1 -0.050311 10.4845 16.1567 2.15774 0 -1 0
489 28 2 -0.174311 9.49742 15.1359 1.74234 0 -1 0
490 28 2 -0.174311 9.71416 14.0916 0.932115 0 -1 0
491 28 1 -0.050311 11.0446 13.6222 0.417607 0 -1 0
492 28 1 -0.091211 10.8172 12.6136 21.2592 0 -1 -1
493 28 3 0.033922 9.10487 17.4277 3.22957 0 -1 0
494 28 3 0.033922 9.05709 17.6992 1.55222 0 -1 0
495 28 3 0.033922 10.4297 18.3458 2.37926 0 -1 0
496 28 3 0.046089 11.3008 16.323 1.4487 0 -1 0
497 28 3 0.046089 10.8618 15.8864 3.14825 0 -1 0
498 28 4 0.121889 8.49996 15.227 2.16035 0 -1 0
499 28 4 0.121889 8.83347 13.565 0.578412 0 -1 0
500 28 3 0.046089 11.6034 13.2605 1.28565 0 -1 0
501 28 3 0.046089 11.5565 14.463 -0.059343 0 -1 0
502 28 3 0.033922 11.7679 12.4655 20.7388 0 -1 -1
503 28 3 0.033922 10.3669 11.6927 21.6408 0 -1 -1
504 28 3 0.033922 10.0783 13.0034 20.5531 0 -1 -1
505 29 1 -0.091211 3.79105 18.2337 7.79808 0 -1 0
506 29 1 -0.050311 2.50858 19.0456 7.42443 0 -1 0
507 29 2 -0.174311 2.55803 1.78142 8.10933 0 0 0
508 29 2 -0.174311 1.55695 2.39571 8.82637 0 0 0
509 29 1 -0.050311 0.339244 1.70213 9.25895 0 0 0
510 29 1 -0.091211 -0.156539 2.40768 10.5162 0 0 0
511 29 3 0.033922 3.55944 17.3115 7.25713 0 -1 0
512 29 3 0.033922 3.96615 18.0933 8.8687 0 -1 0
513 29 3 0.033922 4.7008 18.6847 7.39125 0 -1 0
514 29 3 0.046089 2.45635 19.142 6.33606 0 -1 0
515 29 3 0.046089 1.63614 18.4927 7.78451 0 -1 0
516 29 4 0.121889 3.43375 2.36789 7.85022 0 0 0
517 29 4 0.121889 1.76102 3.42206 9.1144 0 0 0
518 29 3 0.046089 0.486434 19.2768 9.44237 0 -1 0
519 29 3 0.046089 -0.432945 1.80605 8.49117 0 0 0
520 29 3 0.033922 0.680868 2.55647 11.2041 0 0 0
521 29 3 0.033922 -0.590006 3.33961 10.1417 0 0 0
522 29 3 0.033922 -0.823312 1.77428 11.1085 0 0 0
523 30 1 -0.091211 1.22275 16.3111 11.9218 0 0 1
524 30 1 -0.050311 1.95829 16.5847 10.5957 0 0 1
525 30 2 -0.174311 2.77619 15.3857 10.2131 0 0 1
526 30 2 -0.174311 2.85332 14.7018 8.97626 0 0 1
527 30 1 -0.050311 2.0414 14.9901 7.78245 0 0 1
528 30 1 -0.091211 2.8828 14.5641 6.54359 0 0 1
529 30 3 0.033922 1.92671 16.0864 12.7283 0 0 1
530 30 3 0.033922 0.617504 15.4016 11.8666 0 0 1
531 30 3 0.033922 0.70696 17.2324 12.2079 0 0 1
532 30 3 0.046089 1.2903 16.7941 9.75521 0 0 1
533 30 3 0.046089 2.67172 17.4052 10.716 0 0 1
534 30 4 0.121889 3.45159 14.8356 10.8605 0 0 1
535 30 4 0.121889 3.56493 13.8825 8.99308 0 0 1
536 30 3 0.046089 1.86527 16.0697 7.79023 0 0 1
537 30 3 0.046089 1.053 14.555 7.95662 0 0 1
538 30 3 0.033922 2.40703 14.8409 5.59829 0 0 1
539 30 3 0.033922 3.90781 14.9418 6.48651 0 0 1
540 30 3 0.033922 3.07374 13.487 6.55085 0 0 1
541 31 1 -0.091211 18.2212 2.18053 21.2674 0 1 0
542 31 1 -0.050311 19.1654 19.9302 20.4467 0 0 0
543 31 2 -0.174311 19.1141 18.4753 20.7783 0 0 0
544 31 2 -0.174311 20.0159 17.4849 20.4319 0 0 0
545 31 1 -0.050311 21.1226 17.6262 19.4099 0 0 0
546 31 1 -0.091211 22.4233 17.6683 20.2491 0 0 0
547 31 3 0.033922 18.2448 3.23318 20.9708 0 1 0
548 31 3 0.033922 18.4524 2.00807 0.391509 0 1 1
549 31 3 0.033922 17.2018 1.82377 21.0939 0 1 0
550 31 3 0.046089 18.9065 20.0366 19.3893 0 0 0
551 31 3 0.046089 20.1869 1.67594 20.4908 0 1 0
552 31 4 0.121889 18.2836 18.2365 -0.496072 0 0 1
553 31 4 0.121889 19.8373 16.5166 20.8884 0 0 0
554 31 3 0.046089 20.9561 18.554 18.8548 0 0 0
555 31 3 0.046089 21.2201 16.7508 18.7612 0 0 0
556 31 3 0.033922 22.3474 18.4124 21.0473 0 0 0
557 31 3 0.033922 22.7062 16.65 20.5313 0 0 0
558 31 3 0.033922 23.2376 18.0142 19.6058 0 0 0
559 32 1 -0.091211 15.727 2.56303 16.8848 0 1 -1
560 32 1 -0.050311 15.7905 3.97026 16.3091 0 1 -1
561 32 2 -0.174311 16.5485 4.86683 17.2476 0 1 -1
562 32 2 -0.174311 16.0236 5.4336 18.3548 0 1 -1
563 32 1 -0.050311 14.6199 5.21863 18.8528 0 1 -1
564 32 1 -0.091211 14.5787 4.72952 20.2149 0 1 -1
565 32 3 0.033922 15.4179 2.59458 17.9336 0 1 -1
566 32 3 0.033922 16.6901 2.04787 16.8253 0 1 -1
567 32 3 0.033922 15.0636 1.97115 16.2475 0 1 -1
568 32 3 0.046089 16.3405 3.84452 15.372 0 1 -1
569 32 3 0.046089 14.8188 4.43912 16.129 0 1 -1
570 32 4 0.121889 17.5956 4.99721 16.9936 0 1 -1
571 32 4 0.121889 16.6619 6.02486 19.0036 0 1 -1
572 32 3 0.046089 14.0147 4.4835 18.3144 0 1 -1
573 32 3 0.046089 14.0977 6.17982 18.8531 0 1 -1
574 32 3 0.033922 13.5389 4.47567 20.4409 0 1 -1
575 32 3 0.033922 15.1943 3.82928 20.2998 0 1 -1
576 32 3 0.033922 15.0505 5.50293 20.8279 0 1 -1
577 33 1 -0.091211 16.1697 10.927 12.3568 0 0 0
578 33 1 -0.050311 16.6815 9.73744 11.4683 0 0 0
579 33 2 -0.174311 15.5603 8.75016 11.2416 0 0 0
580 33 2 -0.174311 15.7176 7.46221 10.7588 0 0 0
581 33 1 -0.050311 17.0495 6.82015 10.2748 0 0 0
582 33 1 -0.091211 16.9518 5.35419 10.4572 0 0 0
583 33 3 0.033922 16.9203 11.7224 12.3818 0 0 0
584 33 3 0.033922 16.0349 10.6647 13.4102 0 0 0
585 33 3 0.033922 15.2715 11.3639 11.9108 0 0 0
586 33 3 0.046089 17.0503 10.0516 10.4876 0 0 0
587 33 3 0.046089 17.4745 9.24473 12.0384 0 0 0
588 33 4 0.121889 14.5735 9.12555 11.4932 0 0 0
589 33 4 0.121889 14.7326 7.00679 10.7743 0 0 0
590 33 3 0.046089 17.9256 7.27361 10.7475 0 0 0
591 33 3 0.046089 17.1684 7.09319 9.22227 0 0 0
592 33 3 0.033922 16.015 5.0578 9.97656 0 0 0
593 33 3 0.033922 17.8374 4.87469 10.0301 0 0 0
594 33 3 0.033922 16.8067 5.21138 11.532 0 0 0
595 34 1 -0.091211 7.15193 16.7424 8.68765 0 0 0
596 34 1 -0.050311 8.70628 16.416 8.90453 0 0 0
597 34 2 -0.174311 9.13551 15.2929 7.95881 0 0 0
598 34 2 -0.174311 10.2723 15.224 7.17439 0 0 0
599 34 1 -0.050311 11.4068 16.2923 7.22172 0 0 0
600 34 1 -0.091211 12.2289 16.2395 5.96295 0 0 0
601 34 3 0.033922 6.50559 15.8602 8.71136 0 0 0
602 34 3 0.033922 6.97207 17.0231 7.64582 0 0 0
603 34 3 0.033922 6.84061 17.5013 9.41127 0 0 0
604 34 3 0.046089 9.30501 17.2697 8.57403 0 0 0
605 34 3 0.046089 8.84289 16.0641 9.93121 0 0 0
606 34 4 0.121889 8.47488 14.4322 7.93247 0 0 0
607 34 4 0.121889 10.4746 14.2907 6.65862 0 0 0
608 34 3 0.046089 12.0778 15.9679 8.02239 0 0 0
609 34 3 0.046089 11.0865 17.3064 7.47795 0 0 0
610 34 3 0.033922 12.3999 15.1789 5.75681 0 0 0
611 34 3 0.033922 11.6547 16.6616 5.13306 0 0 0
612 34 3 0.033922 13.2083 16.7119 6.08204 0 0 0
613 35 1 -0.091211 41.2218 13.6173 17.2973 -1 0 0
614 35 1 -0.050311 41.6584 13.1123 18.6746 -1 0 0