ITEM: TIMESTEP
57300
ITEM: NUMBER OF ATOMS
1800
ITEM: BOX BOUNDS pp pp pp
-3.5193529212218415e+00 4.2327368421221053e+01
-2.1962486712592533e+00 2.3804904171259494e+01
1.6527564050959089e+00 1.9600977094903936e+01
ITEM: ATOMS id mol type q x y z ix iy iz
1 1 1 -0.091211 4.74815 13.2339 10.2067 0 -1 0
2 1 1 -0.050311 4.23326 12.0845 9.4311 0 -1 0
3 1 2 -0.174311 5.03228 10.8739 9.82252 0 -1 0
4 1 2 -0.174311 4.53311 9.58988 10.0626 0 -1 0
5 1 1 -0.050311 3.05433 9.17767 9.80707 0 -1 0
6 1 1 -0.091211 2.40476 9.28292 11.199 0 -1 0
7 1 3 0.033922 4.59485 13.0784 11.2786 0 -1 0
8 1 3 0.033922 4.26332 14.1713 9.91902 0 -1 0
9 1 3 0.033922 5.80744 13.3957 9.98706 0 -1 0
10 1 3 0.046089 3.22214 11.9748 9.83377 0 -1 0
11 1 3 0.046089 4.27283 12.2766 8.35493 0 -1 0
12 1 4 0.121889 6.07547 11.065 10.0531 0 -1 0
13 1 4 0.121889 5.31509 8.90576 10.3763 0 -1 0
14 1 3 0.046089 3.01309 8.17128 9.38036 0 -1 0
15 1 3 0.046089 2.61035 9.78163 9.01039 0 -1 0
16 1 3 0.033922 2.40411 10.3384 11.4863 0 -1 0
17 1 3 0.033922 1.40423 8.84143 11.2228 0 -1 0
18 1 3 0.033922 3.07222 8.79859 11.9177 0 -1 0
19 2 1 -0.091211 12.2744 1.23683 14.5585 0 0 0
20 2 1 -0.050311 11.27 0.0454155 14.2719 0 0 0
21 2 2 -0.174311 9.92283 0.647949 14.5566 0 0 0
22 2 2 -0.174311 8.81579 0.679156 13.7408 0 0 0
23 2 1 -0.050311 8.81665 0.0810852 12.3598 0 0 0
24 2 1 -0.091211 8.88758 1.29202 11.4759 0 0 0
25 2 3 0.033922 12.3476 1.42321 15.6339 0 0 0
26 2 3 0.033922 11.971 2.10464 13.9657 0 0 0
27 2 3 0.033922 13.2805 0.934526 14.2537 0 0 0
28 2 3 0.046089 11.3082 -0.345513 13.2509 0 0 0
29 2 3 0.046089 11.487 -0.702566 15.04 0 0 0
30 2 4 0.121889 9.79138 1.16723 15.5006 0 0 0
31 2 4 0.121889 7.89269 1.05554 14.1699 0 0 0
32 2 3 0.046089 7.88153 -0.444538 12.1458 0 0 0
33 2 3 0.046089 9.62321 -0.603888 12.0826 0 0 0
34 2 3 0.033922 8.92208 1.0008 10.4221 0 0 0
35 2 3 0.033922 7.97426 1.88704 11.5673 0 0 0
36 2 3 0.033922 9.78041 1.90469 11.631 0 0 0
37 3 1 -0.091211 1.54903 5.33669 12.4201 0 0 0
38 3 1 -0.050311 2.36384 4.1285 12.0142 0 0 0
39 3 2 -0.174311 2.04715 2.92178 12.9044 0 0 0
40 3 2 -0.174311 2.72667 1.8272 12.7757 0 0 0
41 3 1 -0.050311 3.75499 1.52677 11.7685 0 0 0
42 3 1 -0.091211 4.84422 0.643946 12.2643 0 0 0
43 3 3 0.033922 0.502843 5.12481 12.1811 0 0 0
44 3 3 0.033922 2.01012 6.20007 11.9317 0 0 0
45 3 3 0.033922 1.44947 5.42425 13.5059 0 0 0
46 3 3 0.046089 2.2429 3.90146 10.951 0 0 0
47 3 3 0.046089 3.3913 4.48589 12.1287 0 0 0
48 3 4 0.121889 1.34846 3.06937 13.7217 0 0 0
49 3 4 0.121889 2.45288 0.961949 13.371 0 0 0
50 3 3 0.046089 4.20866 2.42243 11.3343 0 0 0
51 3 3 0.046089 3.19146 0.959841 11.0218 0 0 0
52 3 3 0.033922 5.58036 0.508601 11.4666 0 0 0
53 3 3 0.033922 5.31155 1.16797 13.1031 0 0 0
54 3 3 0.033922 4.44001 -0.313541 12.6055 0 0 0
55 4 1 -0.091211 1.14667 21.0904 8.81145 0 -1 0
56 4 1 -0.050311 -0.195067 20.5024 8.49747 0 -1 0
57 4 2 -0.174311 -1.18527 20.6644 9.63821 0 -1 0
58 4 2 -0.174311 -2.46849 20.0625 9.70721 0 -1 0
59 4 1 -0.050311 -2.89586 19.0075 8.70488 0 -1 0
60 4 1 -0.091211 41.6484 19.474 7.99638 -1 -1 0
61 4 3 0.033922 1.81966 20.6375 8.07765 0 -1 0
62 4 3 0.033922 1.50804 20.8907 9.82442 0 -1 0
63 4 3 0.033922 1.10177 22.1696 8.63832 0 -1 0
64 4 3 0.046089 -0.46182 21.0172 7.56988 0 -1 0
65 4 3 0.046089 -0.0481529 19.4596 8.20156 0 -1 0
66 4 4 0.121889 -0.854202 21.4471 10.3133 0 -1 0
67 4 4 0.121889 -3.05093 20.2236 10.6087 0 -1 0
68 4 3 0.046089 -3.10108 18.0897 9.26365 0 -1 0
69 4 3 0.046089 -2.05793 18.8239 8.02611 0 -1 0
70 4 3 0.033922 41.8004 20.3807 7.4036 -1 -1 0
71 4 3 0.033922 41.3001 18.7254 7.27885 -1 -1 0
72 4 3 0.033922 40.9107 19.7393 8.7593 -1 -1 0
73 5 1 -0.091211 -0.317193 1.49821 6.17268 0 0 0
74 5 1 -0.050311 -1.08032 2.12002 4.92448 0 0 0
75 5 2 -0.174311 -1.56406 3.52722 5.25189 0 0 0
76 5 2 -0.174311 -2.83341 3.88034 5.59208 0 0 0
77 5 1 -0.050311 41.8664 2.96842 5.55482 -1 0 0
78 5 1 -0.091211 40.794 3.50389 6.44141 -1 0 0
79 5 3 0.033922 0.0175446 0.476098 5.97311 0 0 0
80 5 3 0.033922 -0.967601 1.51084 7.0521 0 0 0
81 5 3 0.033922 0.510438 2.15452 6.45699 0 0 0
82 5 3 0.046089 -0.368359 2.14556 4.09441 0 0 0
83 5 3 0.046089 -1.9297 1.45718 4.7354 0 0 0
84 5 4 0.121889 -0.822714 4.31863 5.20705 0 0 0
85 5 4 0.121889 -2.95266 4.88227 5.99195 0 0 0
86 5 3 0.046089 42.1288 1.95859 5.88343 -1 0 0
87 5 3 0.046089 41.3942 3.0112 4.56905 -1 0 0
88 5 3 0.033922 40.5387 4.52679 6.14965 -1 0 0
89 5 3 0.033922 39.9651 2.79046 6.41703 -1 0 0
90 5 3 0.033922 41.1394 3.68279 7.46381 -1 0 0
91 6 1 -0.091211 8.91211 7.10209 19.1889 0 0 0
92 6 1 -0.050311 10.026 6.09833 19.4314 0 0 0
93 6 2 -0.174311 9.60959 4.8402 18.7687 0 0 0
94 6 2 -0.174311 10.3434 3.59007 18.9484 0 0 0
95 6 1 -0.050311 11.6038 3.5133 1.76358 0 0 1
96 6 1 -0.091211 11.4195 2.39374 2.72954 0 0 1
97 6 3 0.033922 7.97156 6.72213 19.5982 0 0 0
98 6 3 0.033922 8.89154 7.41843 18.1419 0 0 0
99 6 3 0.033922 9.24704 7.96278 1.82684 0 0 1
100 6 3 0.046089 10.9868 6.33372 18.9647 0 0 0
101 6 3 0.046089 10.122 6.01798 2.5699 0 0 1
102 6 4 0.121889 8.65547 4.81027 18.2523 0 0 0
103 6 4 0.121889 9.94372 2.69202 18.4883 0 0 0
104 6 3 0.046089 11.8315 4.46572 2.25105 0 0 1
105 6 3 0.046089 12.4417 3.35821 19.026 0 0 0
106 6 3 0.033922 12.2571 2.33965 3.43106 0 0 1
107 6 3 0.033922 10.5856 2.58286 3.41172 0 0 1
108 6 3 0.033922 11.2397 1.41369 2.27815 0 0 1
109 7 1 -0.091211 38.0831 21.1458 2.81984 -1 0 0
110 7 1 -0.050311 36.7867 21.6783 2.34294 -1 0 0
111 7 2 -0.174311 35.7928 21.484 3.43039 -1 0 0
112 7 2 -0.174311 35.097 22.4175 4.07743 -1 0 0
113 7 1 -0.050311 35.234 23.788 3.59048 -1 0 0
114 7 1 -0.091211 34.0082 -1.37974 3.92821 -1 1 0
115 7 3 0.033922 38.1326 20.054 2.86568 -1 0 0
116 7 3 0.033922 38.4025 21.5538 3.78323 -1 0 0
117 7 3 0.033922 38.8088 21.2745 2.01152 -1 0 0
118 7 3 0.046089 36.9003 22.7085 1.99334 -1 0 0
119 7 3 0.046089 36.4157 21.1122 19.4318 -1 0 -1
120 7 4 0.121889 35.742 20.503 3.89207 -1 0 0
121 7 4 0.121889 34.5032 22.0645 4.91453 -1 0 0
122 7 3 0.046089 35.2208 -2.31565 2.50149 -1 1 0
123 7 3 0.046089 36.125 -1.67364 3.92467 -1 1 0
124 7 3 0.033922 34.0674 -0.973982 4.94233 -1 1 0
125 7 3 0.033922 33.9256 -0.518115 3.25935 -1 1 0
126 7 3 0.033922 33.1742 -2.07304 3.78552 -1 1 0
127 8 1 -0.091211 40.0543 6.67529 3.78807 -1 0 1
128 8 1 -0.050311 41.2711 7.62742 4.01729 -1 0 1
129 8 2 -0.174311 41.7113 8.2379 2.69587 -1 0 1
130 8 2 -0.174311 -3.13856 7.61798 1.95989 0 0 1
131 8 1 -0.050311 -2.33521 6.32768 2.16706 0 0 1
132 8 1 -0.091211 -0.9432 6.76661 2.47071 0 0 1
133 8 3 0.033922 39.9873 6.00675 4.65131 -1 0 1
134 8 3 0.033922 40.1459 5.99692 2.93483 -1 0 1
135 8 3 0.033922 39.1314 7.26081 3.74357 -1 0 1
136 8 3 0.046089 40.9761 8.36508 4.76923 -1 0 1
137 8 3 0.046089 42.075 7.04462 4.47621 -1 0 1
138 8 4 0.121889 41.2512 9.16355 2.36508 -1 0 1
139 8 4 0.121889 -2.88897 8.1239 18.9809 0 0 0
140 8 3 0.046089 -2.29067 5.75895 19.1819 0 0 0
141 8 3 0.046089 -2.78224 5.66152 2.91068 0 0 1
142 8 3 0.033922 -0.290112 5.88924 2.45447 0 0 1
143 8 3 0.033922 -0.46893 7.45185 1.76213 0 0 1
144 8 3 0.033922 -0.920129 7.16298 3.49 0 0 1
145 9 1 -0.091211 33.3287 15.375 4.62639 -1 0 1
146 9 1 -0.050311 34.1334 16.3661 5.46064 -1 0 1
147 9 2 -0.174311 33.6655 17.7814 5.45791 -1 0 1
148 9 2 -0.174311 34.3568 18.8186 6.11382 -1 0 1
149 9 1 -0.050311 35.7194 18.5126 6.77731 -1 0 1
150 9 1 -0.091211 36.2356 19.6377 7.61057 -1 0 1
151 9 3 0.033922 32.2944 15.3581 4.98212 -1 0 1
152 9 3 0.033922 33.6543 14.335 4.53242 -1 0 1
153 9 3 0.033922 33.2553 15.8093 3.62508 -1 0 1
154 9 3 0.046089 34.2027 16.0763 6.51317 -1 0 1
155 9 3 0.046089 35.1571 16.3882 5.07593 -1 0 1
156 9 4 0.121889 32.6844 17.9773 5.03739 -1 0 1
157 9 4 0.121889 33.8918 19.7774 6.31982 -1 0 1
158 9 3 0.046089 36.4126 18.1649 6.00585 -1 0 1
159 9 3 0.046089 35.5745 17.6444 7.42684 -1 0 1
160 9 3 0.033922 35.6709 19.7024 8.54519 -1 0 1
161 9 3 0.033922 37.2908 19.3842 7.74732 -1 0 1
162 9 3 0.033922 36.2555 20.5703 7.03917 -1 0 1
163 10 1 -0.091211 8.31952 6.95138 8.79443 0 0 1
164 10 1 -0.050311 8.99609 8.27014 8.95663 0 0 1
165 10 2 -0.174311 8.01724 9.33777 8.40308 0 0 1
166 10 2 -0.174311 8.46966 10.6344 8.10075 0 0 1
167 10 1 -0.050311 9.84478 11.1551 8.21912 0 0 1
168 10 1 -0.091211 9.80929 12.6568 8.6195 0 0 1
169 10 3 0.033922 7.30021 6.98513 9.18988 0 0 1
170 10 3 0.033922 8.91671 6.13074 9.20246 0 0 1
171 10 3 0.033922 8.13597 6.77315 7.73088 0 0 1
172 10 3 0.046089 9.15814 8.46679 10.0204 0 0 1
173 10 3 0.046089 9.89359 8.38105 8.34123 0 0 1
174 10 4 0.121889 6.95034 9.18546 8.27489 0 0 1
175 10 4 0.121889 7.66226 11.2854 7.78087 0 0 1
176 10 3 0.046089 10.38 11.0411 7.27196 0 0 1
177 10 3 0.046089 10.3933 10.5973 8.98372 0 0 1
178 10 3 0.033922 9.25384 13.205 7.85302 0 0 1
179 10 3 0.033922 9.2432 12.6527 9.5555 0 0 1
180 10 3 0.033922 10.7786 13.1548 8.7139 0 0 1
181 11 1 -0.091211 38.8256 14.5671 15.2733 -1 0 0
182 11 1 -0.050311 40.3451 14.6788 15.0606 -1 0 0
183 11 2 -0.174311 40.9959 13.3212 14.7904 -1 0 0
184 11 2 -0.174311 41.595 12.8609 13.6659 -1 0 0
185 11 1 -0.050311 41.646 13.6403 12.3573 -1 0 0
186 11 1 -0.091211 -2.8456 14.2548 12.1856 0 0 0
187 11 3 0.033922 38.3079 14.1192 14.4202 -1 0 0
188 11 3 0.033922 38.2969 15.5192 15.3757 -1 0 0
189 11 3 0.033922 38.6653 13.9619 16.1703 -1 0 0
190 11 3 0.046089 40.6581 15.4116 14.3112 -1 0 0
191 11 3 0.046089 40.6839 15.0987 16.0122 -1 0 0
192 11 4 0.121889 41.0685 12.6796 15.6628 -1 0 0
193 11 4 0.121889 42.0396 11.872 13.617 -1 0 0
194 11 3 0.046089 40.8523 14.3889 12.2782 -1 0 0
195 11 3 0.046089 41.4897 12.9088 11.5591 -1 0 0
196 11 3 0.033922 -1.951 13.643 12.0376 0 0 0
197 11 3 0.033922 -2.84645 15.027 11.4108 0 0 0
198 11 3 0.033922 -2.69191 14.9309 13.0317 0 0 0
199 12 1 -0.091211 5.12954 13.6856 3.87022 0 0 0
200 12 1 -0.050311 5.86983 12.6458 4.71821 0 0 0
201 12 2 -0.174311 5.93569 11.3869 3.91102 0 0 0
202 12 2 -0.174311 5.58831 10.1556 4.37669 0 0 0
203 12 1 -0.050311 5.14842 9.95181 5.86138 0 0 0
204 12 1 -0.091211 4.99924 8.4836 6.2546 0 0 0
205 12 3 0.033922 4.06275 13.4616 3.77944 0 0 0
206 12 3 0.033922 5.46881 13.7514 2.83236 0 0 0
207 12 3 0.033922 5.29165 14.7198 4.18771 0 0 0
208 12 3 0.046089 6.87379 13.0566 4.85912 0 0 0
209 12 3 0.046089 5.4012 12.4814 5.69285 0 0 0
210 12 4 0.121889 6.16577 11.3869 2.85034 0 0 0
211 12 4 0.121889 5.52631 9.28681 3.72912 0 0 0
212 12 3 0.046089 4.26582 10.5535 6.09702 0 0 0
213 12 3 0.046089 5.90222 10.4194 6.50146 0 0 0
214 12 3 0.033922 5.84909 7.84507 5.99658 0 0 0
215 12 3 0.033922 4.78699 8.36704 7.32136 0 0 0
216 12 3 0.033922 4.11443 8.08881 5.74686 0 0 0
217 13 1 -0.091211 1.41071 13.4143 14.3313 0 0 0
218 13 1 -0.050311 0.794254 14.0119 15.6561 0 0 0
219 13 2 -0.174311 -0.224034 13.048 16.0553 0 0 0
220 13 2 -0.174311 -0.528941 12.6309 17.3533 0 0 0
221 13 1 -0.050311 0.266097 12.7971 18.6091 0 0 0
222 13 1 -0.091211 1.18551 11.6223 19.0157 0 0 0
223 13 3 0.033922 0.59813 13.3083 13.6067 0 0 0
224 13 3 0.033922 1.77028 12.3903 14.4684 0 0 0
225 13 3 0.033922 2.23464 14.0031 13.9178 0 0 0
226 13 3 0.046089 1.66618 14.1497 16.3021 0 0 0
227 13 3 0.046089 0.323826 14.9825 15.4735 0 0 0
228 13 4 0.121889 -0.988685 12.7581 15.3417 0 0 0
229 13 4 0.121889 -1.38056 11.9606 17.4111 0 0 0
230 13 3 0.046089 -0.448876 12.7452 19.4354 0 0 0
231 13 3 0.046089 0.807336 13.7476 18.5962 0 0 0
232 13 3 0.033922 0.52182 10.7634 19.1514 0 0 0
233 13 3 0.033922 1.90058 11.5075 18.1959 0 0 0
234 13 3 0.033922 1.77184 11.7601 1.98061 0 0 1
235 14 1 -0.091211 13.6088 6.013 6.24285 0 0 0
236 14 1 -0.050311 13.3689 6.0288 7.76463 0 0 0
237 14 2 -0.174311 14.5222 6.53655 8.57401 0 0 0
238 14 2 -0.174311 14.3081 6.85443 9.91693 0 0 0
239 14 1 -0.050311 13.0554 6.50294 10.7365 0 0 0
240 14 1 -0.091211 13.3786 5.91301 12.1113 0 0 0
241 14 3 0.033922 14.5174 5.4243 6.0866 0 0 0
242 14 3 0.033922 13.7394 7.0383 5.88467 0 0 0
243 14 3 0.033922 12.7607 5.52943 5.74933 0 0 0
244 14 3 0.046089 12.527 6.67055 8.04019 0 0 0
245 14 3 0.046089 13.1198 5.00099 8.04421 0 0 0
246 14 4 0.121889 15.3798 6.96986 8.0693 0 0 0
247 14 4 0.121889 15.1406 7.24625 10.4925 0 0 0
248 14 3 0.046089 12.3821 5.87583 10.145 0 0 0
249 14 3 0.046089 12.4729 7.41028 10.9207 0 0 0
250 14 3 0.033922 12.5204 5.69026 12.752 0 0 0
251 14 3 0.033922 13.8641 4.95093 11.9234 0 0 0
252 14 3 0.033922 14.1048 6.59908 12.5568 0 0 0
253 15 1 -0.091211 -1.45271 18.8224 18.6759 0 0 0
254 15 1 -0.050311 -0.309095 19.6044 18.0139 0 0 0
255 15 2 -0.174311 0.959215 18.8278 17.8819 0 0 0
256 15 2 -0.174311 2.22567 19.323 17.8729 0 0 0
257 15 1 -0.050311 2.64186 20.8418 17.9854 0 0 0
258 15 1 -0.091211 3.67462 21.2602 16.9476 0 0 0
259 15 3 0.033922 -1.68511 17.9534 18.0534 0 0 0
260 15 3 0.033922 -2.29529 19.5131 18.7729 0 0 0
261 15 3 0.033922 -1.21473 18.3742 1.69674 0 0 1
262 15 3 0.046089 -0.634515 19.7062 16.9745 0 0 0
263 15 3 0.046089 -0.197026 20.5921 18.4704 0 0 0
264 15 4 0.121889 0.915848 17.7446 17.9343 0 0 0
265 15 4 0.121889 2.95621 18.5237 17.9466 0 0 0
266 15 3 0.046089 3.18185 20.8923 18.9354 0 0 0
267 15 3 0.046089 1.78582 21.4998 17.8102 0 0 0
268 15 3 0.033922 3.46815 20.619 16.0857 0 0 0
269 15 3 0.033922 3.55174 22.3033 16.6421 0 0 0
270 15 3 0.033922 4.70729 21.0512 17.2416 0 0 0
271 16 1 -0.091211 4.17926 4.81573 8.45459 0 1 0
272 16 1 -0.050311 5.49787 4.44605 7.82087 0 1 0
273 16 2 -0.174311 6.12732 3.28104 8.47548 0 1 0
274 16 2 -0.174311 6.61347 2.11902 7.95585 0 1 0
275 16 1 -0.050311 6.6261 1.70429 6.52579 0 1 0
276 16 1 -0.091211 6.61418 0.172178 6.36573 0 1 0
277 16 3 0.033922 3.40574 4.11449 8.12829 0 1 0
278 16 3 0.033922 3.93649 5.80849 8.06462 0 1 0
279 16 3 0.033922 4.20582 4.89473 9.5453 0 1 0
280 16 3 0.046089 5.42745 4.23847 6.74917 0 1 0
281 16 3 0.046089 6.21268 5.27155 7.75634 0 1 0
282 16 4 0.121889 6.21461 3.39448 9.55135 0 1 0
283 16 4 0.121889 7.03249 1.43817 8.68991 0 1 0
284 16 3 0.046089 7.52681 2.15081 6.09465 0 1 0
285 16 3 0.046089 5.71781 2.12302 6.08282 0 1 0
286 16 3 0.033922 5.71886 -0.312509 6.76575 0 1 0
287 16 3 0.033922 6.70436 -0.118575 5.31505 0 1 0
288 16 3 0.033922 7.41671 -0.120093 7.04917 0 1 0
289 17 1 -0.091211 4.35925 12.9064 16.4892 0 0 0
290 17 1 -0.050311 5.81596 13.1307 16.9412 0 0 0
291 17 2 -0.174311 6.35624 14.2304 16.0257 0 0 0
292 17 2 -0.174311 7.07776 13.9839 14.8367 0 0 0
293 17 1 -0.050311 7.30363 12.6335 14.3177 0 0 0
294 17 1 -0.091211 8.20726 12.6679 13.0684 0 0 0
295 17 3 0.033922 3.90555 12.1258 17.1068 0 0 0
296 17 3 0.033922 4.32204 12.6087 15.4373 0 0 0
297 17 3 0.033922 3.77406 13.8297 16.5281 0 0 0
298 17 3 0.046089 5.77071 13.5823 17.9365 0 0 0
299 17 3 0.046089 6.41256 12.214 16.9244 0 0 0
300 17 4 0.121889 6.14161 15.2616 16.2873 0 0 0
301 17 4 0.121889 7.27508 14.8576 14.2237 0 0 0
302 17 3 0.046089 6.41879 12.0859 13.9805 0 0 0
303 17 3 0.046089 7.84652 12.0872 15.0945 0 0 0
304 17 3 0.033922 7.60749 13.0569 12.2404 0 0 0
305 17 3 0.033922 9.14357 13.2108 13.2271 0 0 0
306 17 3 0.033922 8.43594 11.6516 12.7345 0 0 0
307 18 1 -0.091211 39.6399 13.2192 9.38755 -1 0 1
308 18 1 -0.050311 40.8177 12.4148 9.09109 -1 0 1
309 18 2 -0.174311 40.6869 11.9963 7.70112 -1 0 1
310 18 2 -0.174311 40.2462 10.7686 7.25468 -1 0 1
311 18 1 -0.050311 39.6835 9.61882 8.08444 -1 0 1
312 18 1 -0.091211 40.6442 8.45236 8.14378 -1 0 1
313 18 3 0.033922 39.7792 13.503 10.4347 -1 0 1
314 18 3 0.033922 38.7835 12.5503 9.26194 -1 0 1
315 18 3 0.033922 39.559 14.1517 8.82142 -1 0 1
316 18 3 0.046089 41.7617 12.9568 9.19856 -1 0 1
317 18 3 0.046089 40.9063 11.5707 9.78113 -1 0 1
318 18 4 0.121889 40.8797 12.6523 6.85826 -1 0 1
319 18 4 0.121889 40.1632 10.628 6.18168 -1 0 1
320 18 3 0.046089 38.7091 9.42857 7.6252 -1 0 1
321 18 3 0.046089 39.431 9.97944 9.08582 -1 0 1
322 18 3 0.033922 40.797 8.16697 7.09889 -1 0 1
323 18 3 0.033922 41.5693 8.69519 8.67447 -1 0 1
324 18 3 0.033922 40.24 7.59374 8.68786 -1 0 1
325 19 1 -0.091211 10.4812 8.97338 4.71557 0 0 0
326 19 1 -0.050311 11.8844 9.14886 4.14998 0 0 0
327 19 2 -0.174311 11.8467 9.5023 2.69091 0 0 0
328 19 2 -0.174311 12.7503 9.07956 1.7391 0 0 0
329 19 1 -0.050311 13.8156 8.11509 1.94917 0 0 0
330 19 1 -0.091211 14.6069 7.69061 18.6065 0 0 -1
331 19 3 0.033922 10.5716 9.05424 5.80271 0 0 0
332 19 3 0.033922 9.96306 8.06531 4.39383 0 0 0
333 19 3 0.033922 9.82019 9.75546 4.33088 0 0 0
334 19 3 0.046089 12.4817 9.93481 4.62125 0 0 0
335 19 3 0.046089 12.3851 8.18105 4.2458 0 0 0
336 19 4 0.121889 11.0344 10.2029 2.52528 0 0 0
337 19 4 0.121889 12.4593 9.47658 18.72 0 0 -1
338 19 3 0.046089 13.495 7.20848 2.47058 0 0 0
339 19 3 0.046089 14.5735 8.5648 2.59721 0 0 0
340 19 3 0.033922 15.0159 8.5979 18.1524 0 0 -1
341 19 3 0.033922 15.4337 6.99434 18.7745 0 0 -1
342 19 3 0.033922 13.9204 7.31576 17.8418 0 0 -1
343 20 1 -0.091211 10.2272 21.2126 16.6671 0 -1 0
344 20 1 -0.050311 10.9012 21.7892 15.3897 0 -1 0
345 20 2 -0.174311 10.5807 20.8778 14.2559 0 -1 0
346 20 2 -0.174311 10.3544 21.2253 12.9454 0 -1 0
347 20 1 -0.050311 10.3538 22.5632 12.2671 0 -1 0
348 20 1 -0.091211 9.8635 22.4066 10.8395 0 -1 0
349 20 3 0.033922 10.8868 20.4462 17.0843 0 -1 0
350 20 3 0.033922 9.26677 20.7811 16.3705 0 -1 0
351 20 3 0.033922 9.99841 22.0375 17.3482 0 -1 0
352 20 3 0.046089 10.5942 22.8183 15.1817 0 -1 0
353 20 3 0.046089 11.9817 21.7587 15.5574 0 -1 0
354 20 4 0.121889 10.5817 19.7928 14.2839 0 -1 0
355 20 4 0.121889 10.0273 20.4898 12.2173 0 -1 0
356 20 3 0.046089 11.3648 22.9717 12.1806 0 -1 0
357 20 3 0.046089 9.74488 23.1599 12.9524 0 -1 0
358 20 3 0.033922 10.5739 21.8922 10.1858 0 -1 0
359 20 3 0.033922 8.8817 21.9255 10.8046 0 -1 0
360 20 3 0.033922 9.76791 23.3882 10.3664 0 -1 0
361 21 1 -0.091211 1.20117 22.8862 13.3627 0 -1 0
362 21 1 -0.050311 0.540331 22.81 14.802 0 -1 0
363 21 2 -0.174311 0.0304018 -1.79046 15.1865 0 0 0
364 21 2 -0.174311 -0.467987 -1.60574 16.4035 0 0 0
365 21 1 -0.050311 -0.666726 23.3375 17.5374 0 -1 0
366 21 1 -0.091211 -2.07757 23.2095 18.033 0 -1 0
367 21 3 0.033922 0.435186 22.9706 12.5864 0 -1 0
368 21 3 0.033922 1.94703 22.0888 13.2966 0 -1 0
369 21 3 0.033922 1.70695 -2.15336 13.2356 0 0 0
370 21 3 0.046089 -0.282055 22.0913 14.8633 0 -1 0
371 21 3 0.046089 1.31361 22.53 15.5232 0 -1 0
372 21 4 0.121889 0.210645 -0.891939 14.605 0 0 0
373 21 4 0.121889 -0.669059 -0.620541 16.812 0 0 0
374 21 3 0.046089 -0.12 23.6765 18.4221 0 -1 0
375 21 3 0.046089 -0.347175 22.3248 17.2748 0 -1 0
376 21 3 0.033922 -2.71229 22.7168 17.2907 0 -1 0
377 21 3 0.033922 -2.05898 22.5237 18.885 0 -1 0
378 21 3 0.033922 -2.49273 -1.80877 18.2742 0 0 0
379 22 1 -0.091211 5.47484 20.5566 11.7464 0 -1 0
380 22 1 -0.050311 6.14797 21.4642 12.7239 0 -1 0
381 22 2 -0.174311 5.10844 22.5677 13.072 0 -1 0
382 22 2 -0.174311 5.40267 23.4944 14.057 0 -1 0
383 22 1 -0.050311 6.72436 -2.17534 14.64 0 0 0
384 22 1 -0.091211 7.04188 23.0254 15.8285 0 -1 0
385 22 3 0.033922 6.27996 20.1821 11.1076 0 -1 0
386 22 3 0.033922 4.80857 21.1187 11.0855 0 -1 0
387 22 3 0.033922 4.91596 19.77 12.2616 0 -1 0
388 22 3 0.046089 6.46037 20.831 13.5594 0 -1 0
389 22 3 0.046089 7.04028 21.96 12.3309 0 -1 0
390 22 4 0.121889 4.11612 22.4858 12.6402 0 -1 0
391 22 4 0.121889 4.61742 -1.82986 14.3781 0 0 0
392 22 3 0.046089 6.71863 -1.1314 14.9668 0 0 0
393 22 3 0.046089 7.45013 23.6486 13.841 0 -1 0
394 22 3 0.033922 6.23045 23.172 16.5473 0 -1 0
395 22 3 0.033922 7.2098 21.9496 15.7228 0 -1 0
396 22 3 0.033922 7.98294 23.3779 16.2605 0 -1 0
397 23 1 -0.091211 1.61655 5.64685 18.2062 0 0 -1
398 23 1 -0.050311 2.86129 6.52082 18.0975 0 0 -1
399 23 2 -0.174311 2.70757 7.91818 18.6397 0 0 -1
400 23 2 -0.174311 3.78965 8.74849 19.0099 0 0 -1
401 23 1 -0.050311 5.2449 8.43761 18.6521 0 0 -1
402 23 1 -0.091211 5.93858 9.73621 18.1899 0 0 -1
403 23 3 0.033922 1.64823 4.93817 17.3735 0 0 -1
404 23 3 0.033922 0.676572 6.20569 18.1802 0 0 -1
405 23 3 0.033922 1.71831 5.08121 19.137 0 0 -1
406 23 3 0.046089 3.74905 6.08863 18.5683 0 0 -1
407 23 3 0.046089 3.06093 6.59356 17.0245 0 0 -1
408 23 4 0.121889 1.70703 8.15481 18.9873 0 0 -1
409 23 4 0.121889 3.65035 9.69681 19.5191 0 0 -1
410 23 3 0.046089 5.25298 7.74236 17.8076 0 0 -1
411 23 3 0.046089 5.79649 8.05591 19.5162 0 0 -1
412 23 3 0.033922 6.08508 10.4406 19.0139 0 0 -1
413 23 3 0.033922 6.92066 9.51283 17.7631 0 0 -1
414 23 3 0.033922 5.39677 10.1691 17.3439 0 0 -1
415 24 1 -0.091211 9.46612 11.9594 18.4542 0 0 -1
416 24 1 -0.050311 8.53265 12.1018 1.73768 0 0 0
417 24 2 -0.174311 9.27718 12.8924 2.71579 0 0 0
418 24 2 -0.174311 9.0689 14.1482 3.16863 0 0 0
419 24 1 -0.050311 8.03135 15.1128 2.67953 0 0 0
420 24 1 -0.091211 8.62166 16.5096 2.47692 0 0 0
421 24 3 0.033922 9.14 11.0879 17.879 0 0 -1
422 24 3 0.033922 10.5219 11.7494 18.6482 0 0 -1
423 24 3 0.033922 9.36019 12.7955 17.7569 0 0 -1
424 24 3 0.046089 7.5947 12.5881 19.4024 0 0 -1
425 24 3 0.046089 8.25461 11.1721 2.24247 0 0 0
426 24 4 0.121889 10.1196 12.3926 3.18324 0 0 0
427 24 4 0.121889 9.76925 14.5263 3.90649 0 0 0
428 24 3 0.046089 7.18121 15.2543 3.35316 0 0 0
429 24 3 0.046089 7.60286 14.8448 1.70941 0 0 0
430 24 3 0.033922 9.65549 16.3412 2.16173 0 0 0
431 24 3 0.033922 8.13632 16.9777 19.5638 0 0 -1
432 24 3 0.033922 8.39963 17.1771 3.31462 0 0 0
433 25 1 -0.091211 5.90761 5.67973 12.0146 0 0 0
434 25 1 -0.050311 7.00938 6.18778 12.8366 0 0 0
435 25 2 -0.174311 7.37544 7.68984 12.4769 0 0 0
436 25 2 -0.174311 7.17038 8.81896 13.2939 0 0 0
437 25 1 -0.050311 6.65386 8.82911 14.7426 0 0 0
438 25 1 -0.091211 5.21357 8.75439 14.7948 0 0 0
439 25 3 0.033922 4.99568 6.22362 12.2775 0 0 0
440 25 3 0.033922 5.88734 4.60586 12.2219 0 0 0
441 25 3 0.033922 6.08324 5.78401 10.94 0 0 0
442 25 3 0.046089 6.79099 6.06366 13.9012 0 0 0
443 25 3 0.046089 7.85981 5.5757 12.5224 0 0 0
444 25 4 0.121889 7.69632 7.86655 11.4553 0 0 0
445 25 4 0.121889 7.41655 9.76599 12.8243 0 0 0
446 25 3 0.046089 6.99325 9.67361 15.3494 0 0 0
447 25 3 0.046089 7.04688 7.95795 15.2748 0 0 0
448 25 3 0.033922 4.88911 7.9043 14.1876 0 0 0
449 25 3 0.033922 4.8612 8.7507 15.8303 0 0 0
450 25 3 0.033922 4.74154 9.61866 14.3185 0 0 0
451 26 1 -0.091211 1.39933 16.5738 12.8531 0 -1 0
452 26 1 -0.050311 0.0936425 17.3202 12.6074 0 -1 0
453 26 2 -0.174311 -0.958316 17.1484 13.6865 0 -1 0
454 26 2 -0.174311 -1.72133 18.1316 14.2091 0 -1 0
455 26 1 -0.050311 -1.66833 19.5182 13.7349 0 -1 0
456 26 1 -0.091211 -2.69219 20.4222 14.383 0 -1 0
457 26 3 0.033922 1.25191 15.5069 12.6618 0 -1 0
458 26 3 0.033922 1.80161 16.7489 13.8551 0 -1 0
459 26 3 0.033922 2.13047 17.0045 12.1628 0 -1 0
460 26 3 0.046089 0.403003 18.3677 12.5469 0 -1 0
461 26 3 0.046089 -0.379864 17.053 11.6582 0 -1 0
462 26 4 0.121889 -1.13313 16.1208 13.9888 0 -1 0
463 26 4 0.121889 -2.40809 17.8317 14.9942 0 -1 0
464 26 3 0.046089 -1.83333 19.6902 12.6673 0 -1 0
465 26 3 0.046089 -0.65719 19.893 13.9183 0 -1 0
466 26 3 0.033922 -2.59026 21.5061 14.2766 0 -1 0
467 26 3 0.033922 42.2556 20.0943 13.8529 -1 -1 0
468 26 3 0.033922 -2.7471 20.2768 15.4658 0 -1 0
469 27 1 -0.091211 16.4657 12.5477 19.0114 0 0 -1
470 27 1 -0.050311 16.4495 13.6709 2.07705 0 0 0
471 27 2 -0.174311 17.4984 13.6504 3.11597 0 0 0
472 27 2 -0.174311 17.5101 14.5535 4.11013 0 0 0
473 27 1 -0.050311 16.516 15.656 4.29896 0 0 0
474 27 1 -0.091211 17.0485 16.6721 5.27197 0 0 0
475 27 3 0.033922 15.7296 12.6947 18.2157 0 0 -1
476 27 3 0.033922 16.1545 11.618 19.4965 0 0 -1
477 27 3 0.033922 17.4783 12.436 18.6131 0 0 -1
478 27 3 0.046089 16.3473 14.6634 19.5768 0 0 -1
479 27 3 0.046089 15.516 13.5464 2.63363 0 0 0
480 27 4 0.121889 18.2895 12.9076 3.09609 0 0 0
481 27 4 0.121889 18.2034 14.4242 4.93506 0 0 0
482 27 3 0.046089 15.5712 15.2958 4.7162 0 0 0
483 27 3 0.046089 16.2922 16.1238 3.33579 0 0 0
484 27 3 0.033922 17.1407 16.3648 6.31772 0 0 0
485 27 3 0.033922 17.984 17.0982 4.8979 0 0 0
486 27 3 0.033922 16.264 17.4322 5.33044 0 0 0
487 28 1 -0.091211 4.57898 23.5573 2.18829 0 -1 0
488 28 1 -0.050311 5.77192 22.5839 2.14925 0 -1 0
489 28 2 -0.174311 6.97904 23.0498 2.85994 0 -1 0
490 28 2 -0.174311 7.98864 22.1475 3.2378 0 -1 0
491 28 1 -0.050311 8.04073 20.7344 2.63219 0 -1 0
492 28 1 -0.091211 9.48705 20.363 2.40818 0 -1 0
493 28 3 0.033922 3.7865 23.2418 19.4517 0 -1 -1
494 28 3 0.033922 4.8798 -1.42917 1.91157 0 0 0
495 28 3 0.033922 4.22925 23.5749 3.22462 0 -1 0
496 28 3 0.046089 5.39429 21.6585 2.59377 0 -1 0
497 28 3 0.046089 6.03595 22.4766 19.0414 0 -1 -1
498 28 4 0.121889 7.11666 -1.92171 3.17442 0 0 0
499 28 4 0.121889 8.6444 22.3956 4.06629 0 -1 0
500 28 3 0.046089 7.48405 20.6345 1.69587 0 -1 0
501 28 3 0.046089 7.50704 20.0947 3.34108 0 -1 0
502 28 3 0.033922 9.49196 19.4941 1.74361 0 -1 0
503 28 3 0.033922 10.1382 21.1002 1.92945 0 -1 0
504 28 3 0.033922 9.97824 20.1263 3.3565 0 -1 0
505 29 1 -0.091211 7.83235 4.13719 4.17841 0 0 0
506 29 1 -0.050311 6.36861 4.08055 3.56557 0 0 0
507 29 2 -0.174311 5.60936 5.29537 3.84508 0 0 0
508 29 2 -0.174311 4.18668 5.26909 3.86775 0 0 0
509 29 1 -0.050311 3.3835 3.96708 3.68782 0 0 0
510 29 1 -0.091211 1.9099 4.01399 4.00549 0 0 0
511 29 3 0.033922 7.7724 4.47437 5.21731 0 0 0
512 29 3 0.033922 8.39027 4.92321 3.66125 0 0 0
513 29 3 0.033922 8.28883 3.15626 4.0172 0 0 0
514 29 3 0.046089 6.66368 4.07964 2.51223 0 0 0
515 29 3 0.046089 5.87233 3.11737 3.71581 0 0 0
516 29 4 0.121889 6.18581 6.20855 3.95351 0 0 0
517 29 4 0.121889 3.70675 6.23903 3.95045 0 0 0
518 29 3 0.046089 3.81281 3.10539 4.2072 0 0 0
519 29 3 0.046089 3.48039 3.73172 2.62395 0 0 0
520 29 3 0.033922 1.76847 3.83401 5.07516 0 0 0
521 29 3 0.033922 1.3951 4.93732 3.72436 0 0 0
522 29 3 0.033922 1.37568 3.17885 3.54318 0 0 0
523 30 1 -0.091211 4.31159 23.5992 9.06039 0 0 1
524 30 1 -0.050311 5.78202 23.2796 8.88967 0 0 1
525 30 2 -0.174311 5.87282 22.868 7.39152 0 0 1
526 30 2 -0.174311 6.49869 21.815 6.83913 0 0 1
527 30 1 -0.050311 7.27146 20.8468 7.71312 0 0 1
528 30 1 -0.091211 8.37753 20.2366 6.94492 0 0 1
529 30 3 0.033922 3.6065 22.7988 8.81802 0 0 1
530 30 3 0.033922 4.05888 -1.54198 8.43339 0 1 1
531 30 3 0.033922 4.16481 23.8001 10.1256 0 0 1
532 30 3 0.046089 6.42797 -1.87652 9.14498 0 1 1
533 30 3 0.046089 6.13726 22.4575 9.51785 0 0 1
534 30 4 0.121889 5.41602 23.6009 6.7341 0 0 1
535 30 4 0.121889 6.60086 21.6949 5.7653 0 0 1
536 30 3 0.046089 6.56002 20.1094 8.09619 0 0 1
537 30 3 0.046089 7.71413 21.3526 8.57612 0 0 1
538 30 3 0.033922 8.92617 19.5323 7.57706 0 0 1
539 30 3 0.033922 7.9212 19.7087 6.10248 0 0 1
540 30 3 0.033922 9.05124 21.0027 6.55034 0 0 1
541 31 1 -0.091211 18.6469 0.736309 14.2459 0 1 0
542 31 1 -0.050311 19.238 1.97012 13.665 0 1 0
543 31 2 -0.174311 20.6779 1.80915 13.3189 0 1 0
544 31 2 -0.174311 21.6692 2.74689 13.3797 0 1 0
545 31 1 -0.050311 21.4708 4.22751 13.9329 0 1 0
546 31 1 -0.091211 21.9783 5.28445 12.9894 0 1 0
547 31 3 0.033922 18.8372 -0.168493 13.6613 0 1 0
548 31 3 0.033922 17.5655 0.859739 14.3548 0 1 0
549 31 3 0.033922 19.0673 0.598459 15.2464 0 1 0
550 31 3 0.046089 18.7331 2.14425 12.7103 0 1 0
551 31 3 0.046089 18.9563 2.80299 14.3158 0 1 0
552 31 4 0.121889 20.9581 0.910822 12.7781 0 1 0
553 31 4 0.121889 22.6734 2.42642 13.1211 0 1 0
554 31 3 0.046089 22.0804 4.37699 14.8288 0 1 0
555 31 3 0.046089 20.4363 4.46624 14.196 0 1 0
556 31 3 0.033922 23.0554 5.12857 12.8794 0 1 0
557 31 3 0.033922 21.3995 5.31931 12.0618 0 1 0
558 31 3 0.033922 21.8073 6.19027 13.5783 0 1 0
559 32 1 -0.091211 16.0459 -1.84522 6.67737 0 1 0
560 32 1 -0.050311 14.8251 -1.83624 7.59873 0 1 0
561 32 2 -0.174311 14.0362 22.8885 7.4737 0 0 0
562 32 2 -0.174311 12.7022 22.7763 7.73174 0 0 0
563 32 1 -0.050311 11.7937 -2.15393 8.16976 0 1 0
564 32 1 -0.091211 10.597 -2.05821 7.20344 0 1 0
565 32 3 0.033922 16.226 -0.814348 6.35884 0 1 0
566 32 3 0.033922 15.8303 23.5527 5.79068 0 0 0
567 32 3 0.033922 16.878 23.7018 7.22315 0 0 0
568 32 3 0.046089 15.1931 -1.62342 8.60663 0 1 0
569 32 3 0.046089 14.203 -0.978482 7.32689 0 1 0
570 32 4 0.121889 14.5576 21.9534 7.29524 0 0 0
571 32 4 0.121889 12.2394 21.7951 7.76158 0 0 0
572 32 3 0.046089 12.295 -1.19001 8.29697 0 1 0
573 32 3 0.046089 11.5293 23.5689 9.19408 0 0 0
574 32 3 0.033922 10.1163 -1.09482 7.39675 0 1 0
575 32 3 0.033922 10.864 -2.06472 6.14266 0 1 0
576 32 3 0.033922 9.89322 23.1375 7.43258 0 0 0
577 33 1 -0.091211 16.6009 9.89472 9.0159 0 0 0
578 33 1 -0.050311 16.0374 10.3843 10.4242 0 0 0
579 33 2 -0.174311 14.5166 10.7734 10.0831 0 0 0
580 33 2 -0.174311 13.7964 11.8799 10.4151 0 0 0
581 33 1 -0.050311 14.3022 12.96 11.3724 0 0 0
582 33 1 -0.091211 15.0643 14.0683 10.6263 0 0 0
583 33 3 0.033922 16.4157 10.6102 8.20945 0 0 0
584 33 3 0.033922 16.162 8.92915 8.7483 0 0 0
585 33 3 0.033922 17.6927 9.89118 9.08306 0 0 0
586 33 3 0.046089 16.0323 9.54387 11.1244 0 0 0
587 33 3 0.046089 16.5358 11.2249 10.9158 0 0 0
588 33 4 0.121889 13.9878 10.011 9.51994 0 0 0
589 33 4 0.121889 12.7929 11.8515 10.0028 0 0 0
590 33 3 0.046089 14.9975 12.4246 12.0254 0 0 0
591 33 3 0.046089 13.4022 13.3496 11.857 0 0 0
592 33 3 0.033922 15.7999 13.6715 9.92067 0 0 0
593 33 3 0.033922 14.4184 14.6005 9.92184 0 0 0
594 33 3 0.033922 15.5743 14.6666 11.3869 0 0 0
595 34 1 -0.091211 15.7814 17.4043 8.96558 0 0 0
596 34 1 -0.050311 15.2713 18.6229 9.72051 0 0 0
597 34 2 -0.174311 15.9904 18.7783 10.9467 0 0 0
598 34 2 -0.174311 15.6158 19.4056 12.0622 0 0 0
599 34 1 -0.050311 14.2604 20.0728 12.1851 0 0 0
600 34 1 -0.091211 14.3743 21.1315 13.3082 0 0 0
601 34 3 0.033922 16.7761 17.496 8.51993 0 0 0
602 34 3 0.033922 15.1543 17.2088 8.09086 0 0 0
603 34 3 0.033922 15.9306 16.5669 9.65336 0 0 0
604 34 3 0.046089 15.451 19.4645 9.04531 0 0 0
605 34 3 0.046089 14.1997 18.5618 9.93159 0 0 0
606 34 4 0.121889 16.9902 18.3561 10.9525 0 0 0
607 34 4 0.121889 16.3468 19.4711 12.8617 0 0 0
608 34 3 0.046089 13.582 19.2958 12.5493 0 0 0
609 34 3 0.046089 13.9596 20.4883 11.219 0 0 0
610 34 3 0.033922 14.7213 20.6747 14.2396 0 0 0
611 34 3 0.033922 15.0485 21.9377 13.0049 0 0 0
612 34 3 0.033922 13.374 21.5299 13.5011 0 0 0
613 35 1 -0.091211 37.0795 10.9176 17.6684 -1 0 0
614 35 1 -0.050311 38.1173 9.8594 17.8154 -1 0 0
615 35 2 -0.174311 39.407 10.3201 17.2611 -1 0 0
616 35 2 -0.174311 39.9145 10.1667 15.946 -1 0 0