ITEM: TIMESTEP
8100
ITEM: NUMBER OF ATOMS
1800
ITEM: BOX BOUNDS pp pp pp
-2.9827233409119316e+00 4.1790738840911651e+01
-6.2585158914120598e-01 2.2234507089141506e+01
-1.4974271818440297e+00 2.2751160681844151e+01
ITEM: ATOMS id mol type q x y z ix iy iz
1 1 1 -0.091211 0.643165 13.6171 1.56818 0 -1 0
2 1 1 -0.050311 1.72939 14.6489 1.26053 0 -1 0
3 1 2 -0.174311 1.79985 15.526 2.53004 0 -1 0
4 1 2 -0.174311 0.99018 16.567 2.83349 0 -1 0
5 1 1 -0.050311 -0.255895 17.0272 2.11648 0 -1 0
6 1 1 -0.091211 -1.38918 16.7644 3.08516 0 -1 0
7 1 3 0.033922 1.00775 12.9261 2.33386 0 -1 0
8 1 3 0.033922 0.526336 13.0395 0.646575 0 -1 0
9 1 3 0.033922 -0.279508 14.0106 2.00455 0 -1 0
10 1 3 0.046089 2.71449 14.2447 1.00996 0 -1 0
11 1 3 0.046089 1.47454 15.3496 0.460065 0 -1 0
12 1 4 0.121889 2.6448 15.2598 3.15711 0 -1 0
13 1 4 0.121889 1.37161 17.236 3.59838 0 -1 0
14 1 3 0.046089 -0.394781 16.4243 1.21431 0 -1 0
15 1 3 0.046089 -0.181972 18.0693 1.79237 0 -1 0
16 1 3 0.033922 -2.3642 16.7997 2.5905 0 -1 0
17 1 3 0.033922 -1.32328 15.7287 3.43085 0 -1 0
18 1 3 0.033922 -1.44751 17.5099 3.88364 0 -1 0
19 2 1 -0.091211 7.49206 1.65182 12.6368 0 0 0
20 2 1 -0.050311 8.10116 2.12372 13.9325 0 0 0
21 2 2 -0.174311 9.5218 1.79698 13.9147 0 0 0
22 2 2 -0.174311 10.2314 1.86394 15.0639 0 0 0
23 2 1 -0.050311 9.87009 2.37722 16.4049 0 0 0
24 2 1 -0.091211 10.4374 1.47638 17.5331 0 0 0
25 2 3 0.033922 7.95832 0.700524 12.3643 0 0 0
26 2 3 0.033922 7.74555 2.29307 11.7876 0 0 0
27 2 3 0.033922 6.40399 1.55919 12.7009 0 0 0
28 2 3 0.046089 8.05011 3.208 14.0679 0 0 0
29 2 3 0.046089 7.6716 1.55178 14.7602 0 0 0
30 2 4 0.121889 9.94706 1.42225 12.989 0 0 0
31 2 4 0.121889 11.2535 1.54042 14.8944 0 0 0
32 2 3 0.046089 8.80022 2.57145 16.5242 0 0 0
33 2 3 0.046089 10.3953 3.33231 16.4975 0 0 0
34 2 3 0.033922 11.4863 1.19812 17.3958 0 0 0
35 2 3 0.033922 10.1555 1.96687 18.4694 0 0 0
36 2 3 0.033922 9.87314 0.542939 17.6163 0 0 0
37 3 1 -0.091211 -2.80175 5.07478 13.9392 0 0 0
38 3 1 -0.050311 41.577 6.48917 13.5583 -1 0 0
39 3 2 -0.174311 40.7323 6.66494 12.3627 -1 0 0
40 3 2 -0.174311 41.2347 6.62565 11.1232 -1 0 0
41 3 1 -0.050311 -2.12045 6.43437 10.7329 0 0 0
42 3 1 -0.091211 -1.73206 7.57659 9.75998 0 0 0
43 3 3 0.033922 41.111 4.42436 14.1199 -1 0 0
44 3 3 0.033922 -2.1766 5.11486 14.836 0 0 0
45 3 3 0.033922 -2.32887 4.67456 13.0376 0 0 0
46 3 3 0.046089 41.0075 6.92628 14.3837 -1 0 0
47 3 3 0.046089 -2.24925 7.02877 13.4675 0 0 0
48 3 4 0.121889 39.7174 6.96147 12.6077 -1 0 0
49 3 4 0.121889 40.5545 6.84316 10.3059 -1 0 0
50 3 3 0.046089 -1.93535 5.42027 10.3668 0 0 0
51 3 3 0.046089 -1.42432 6.456 11.5764 0 0 0
52 3 3 0.033922 -0.748293 7.30613 9.36546 0 0 0
53 3 3 0.033922 -2.35164 7.65238 8.86163 0 0 0
54 3 3 0.033922 -1.68735 8.52964 10.2951 0 0 0
55 4 1 -0.091211 7.54568 8.19896 4.13451 0 0 0
56 4 1 -0.050311 6.58664 7.17834 4.51931 0 0 0
57 4 2 -0.174311 5.36062 7.07932 3.5839 0 0 0
58 4 2 -0.174311 4.89317 5.87044 3.19463 0 0 0
59 4 1 -0.050311 5.33556 4.47792 3.52776 0 0 0
60 4 1 -0.091211 6.37447 3.98587 2.47149 0 0 0
61 4 3 0.033922 8.04841 8.00622 3.18226 0 0 0
62 4 3 0.033922 8.32322 8.22243 4.90361 0 0 0
63 4 3 0.033922 7.05825 9.17825 4.13742 0 0 0
64 4 3 0.046089 7.1657 6.25139 4.47394 0 0 0
65 4 3 0.046089 6.20475 7.328 5.53344 0 0 0
66 4 4 0.121889 4.84234 7.99893 3.33151 0 0 0
67 4 4 0.121889 4.0266 6.00357 2.55483 0 0 0
68 4 3 0.046089 4.4302 3.86564 3.48285 0 0 0
69 4 3 0.046089 5.89052 4.42733 4.46911 0 0 0
70 4 3 0.033922 6.69682 2.97523 2.73856 0 0 0
71 4 3 0.033922 5.97722 3.9313 1.4537 0 0 0
72 4 3 0.033922 7.30787 4.55627 2.46858 0 0 0
73 5 1 -0.091211 -1.52831 6.18704 5.64865 0 0 0
74 5 1 -0.050311 -1.48673 7.67812 5.29829 0 0 0
75 5 2 -0.174311 -0.272613 8.22298 5.97537 0 0 0
76 5 2 -0.174311 -0.189923 9.49203 6.48422 0 0 0
77 5 1 -0.050311 -1.25223 10.5538 6.41856 0 0 0
78 5 1 -0.091211 -1.46045 11.2067 5.03531 0 0 0
79 5 3 0.033922 -0.684939 5.62731 5.2339 0 0 0
80 5 3 0.033922 -2.5105 5.9097 5.25496 0 0 0
81 5 3 0.033922 -1.56643 6.10016 6.73846 0 0 0
82 5 3 0.046089 -1.52268 7.78213 4.2099 0 0 0
83 5 3 0.046089 -2.40194 8.12103 5.70181 0 0 0
84 5 4 0.121889 0.625025 7.62827 6.11155 0 0 0
85 5 4 0.121889 0.756781 9.80417 6.91354 0 0 0
86 5 3 0.046089 -1.01511 11.2656 7.21472 0 0 0
87 5 3 0.046089 -2.21308 10.1404 6.73861 0 0 0
88 5 3 0.033922 -2.23518 11.9758 5.10616 0 0 0
89 5 3 0.033922 -0.51956 11.655 4.70311 0 0 0
90 5 3 0.033922 -1.69007 10.4025 4.33019 0 0 0
91 6 1 -0.091211 9.60104 5.36346 18.8621 0 0 0
92 6 1 -0.050311 8.252 6.23106 18.7087 0 0 0
93 6 2 -0.174311 7.97179 7.07917 19.966 0 0 0
94 6 2 -0.174311 7.14964 8.19136 20.0204 0 0 0
95 6 1 -0.050311 6.2805 8.65574 18.8697 0 0 0
96 6 1 -0.091211 5.40201 9.89039 19.4171 0 0 0
97 6 3 0.033922 10.3718 6.03818 18.4782 0 0 0
98 6 3 0.033922 9.55907 4.43394 18.2869 0 0 0
99 6 3 0.033922 9.78116 5.02984 19.8882 0 0 0
100 6 3 0.046089 8.30736 6.89405 17.8403 0 0 0
101 6 3 0.046089 7.40981 5.56218 18.5089 0 0 0
102 6 4 0.121889 8.3693 6.84619 20.9488 0 0 0
103 6 4 0.121889 6.98979 8.7629 20.9292 0 0 0
104 6 3 0.046089 5.72795 7.77472 18.5305 0 0 0
105 6 3 0.046089 6.82924 8.97356 17.9784 0 0 0
106 6 3 0.033922 4.86802 10.3161 18.5625 0 0 0
107 6 3 0.033922 4.61955 9.57722 20.1144 0 0 0
108 6 3 0.033922 5.97455 10.7435 19.7925 0 0 0
109 7 1 -0.091211 36.4919 14.4013 1.45043 -1 0 0
110 7 1 -0.050311 37.3926 15.5075 1.97091 -1 0 0
111 7 2 -0.174311 38.5807 14.9492 2.708 -1 0 0
112 7 2 -0.174311 39.7243 14.4813 2.1209 -1 0 0
113 7 1 -0.050311 39.9328 14.2997 0.658374 -1 0 0
114 7 1 -0.091211 41.2045 13.4088 0.519968 -1 0 0
115 7 3 0.033922 35.9336 14.0489 2.32264 -1 0 0
116 7 3 0.033922 36.9935 13.5393 1.00108 -1 0 0
117 7 3 0.033922 35.9111 14.9048 0.672159 -1 0 0
118 7 3 0.046089 37.8712 16.0223 1.1327 -1 0 0
119 7 3 0.046089 36.8593 16.2324 2.59279 -1 0 0
120 7 4 0.121889 38.439 14.8629 3.78064 -1 0 0
121 7 4 0.121889 40.5124 14.1603 2.79457 -1 0 0
122 7 3 0.046089 40.0898 15.2537 0.146613 -1 0 0
123 7 3 0.046089 39.1171 13.6628 0.303849 -1 0 0
124 7 3 0.033922 41.4422 13.2411 -0.534567 -1 0 0
125 7 3 0.033922 -2.71726 13.9089 0.990086 0 0 0
126 7 3 0.033922 41.0332 12.4426 1.00343 -1 0 0
127 8 1 -0.091211 -1.03466 9.66551 14.5142 0 0 0
128 8 1 -0.050311 0.372412 9.90917 14.1278 0 0 0
129 8 2 -0.174311 0.672381 8.93347 12.9653 0 0 0
130 8 2 -0.174311 0.921885 9.23318 11.6667 0 0 0
131 8 1 -0.050311 0.973306 10.6009 10.9945 0 0 0
132 8 1 -0.091211 0.598814 10.5467 9.5763 0 0 0
133 8 3 0.033922 -1.16593 10.0961 15.5112 0 0 0
134 8 3 0.033922 -1.34588 8.61935 14.5872 0 0 0
135 8 3 0.033922 -1.70555 10.1972 13.8332 0 0 0
136 8 3 0.046089 0.62838 10.9495 13.907 0 0 0
137 8 3 0.046089 1.04701 9.63558 14.9444 0 0 0
138 8 4 0.121889 0.619599 7.86241 13.1328 0 0 0
139 8 4 0.121889 1.03681 8.33611 11.0667 0 0 0
140 8 3 0.046089 2.01228 10.9336 11.0747 0 0 0
141 8 3 0.046089 0.349253 11.2806 11.5821 0 0 0
142 8 3 0.033922 0.761579 11.5048 9.074 0 0 0
143 8 3 0.033922 1.21385 9.76113 9.12777 0 0 0
144 8 3 0.033922 -0.456059 10.2673 9.50038 0 0 0
145 9 1 -0.091211 -0.91774 5.35863 18.1017 0 0 0
146 9 1 -0.050311 -0.773188 6.74494 17.4024 0 0 0
147 9 2 -0.174311 0.496504 6.70126 16.5839 0 0 0
148 9 2 -0.174311 1.54601 7.55009 16.8465 0 0 0
149 9 1 -0.050311 1.5425 8.78843 17.6242 0 0 0
150 9 1 -0.091211 2.00804 8.60108 19.031 0 0 0
151 9 3 0.033922 -1.08772 4.58742 17.3448 0 0 0
152 9 3 0.033922 -1.76047 5.43043 18.7955 0 0 0
153 9 3 0.033922 0.0141003 5.08558 18.6055 0 0 0
154 9 3 0.046089 -1.71295 6.90718 16.8665 0 0 0
155 9 3 0.046089 -0.731456 7.5644 18.1258 0 0 0
156 9 4 0.121889 0.589773 5.96135 15.7953 0 0 0
157 9 4 0.121889 2.48005 7.36069 16.3272 0 0 0
158 9 3 0.046089 0.534614 9.21301 17.6463 0 0 0
159 9 3 0.046089 2.12752 9.60935 17.1995 0 0 0
160 9 3 0.033922 1.80807 9.53273 19.5682 0 0 0
161 9 3 0.033922 1.31239 7.8826 19.4742 0 0 0
162 9 3 0.033922 3.05237 8.31981 19.1948 0 0 0
163 10 1 -0.091211 -2.88066 10.2046 19.8991 0 0 0
164 10 1 -0.050311 -2.48726 9.90621 21.3889 0 0 0
165 10 2 -0.174311 -1.3155 8.8285 21.5128 0 0 0
166 10 2 -0.174311 -0.268928 8.83192 22.355 0 0 0
167 10 1 -0.050311 0.013937 10.0122 -0.996083 0 0 1
168 10 1 -0.091211 -0.797044 10.0675 0.307768 0 0 1
169 10 3 0.033922 -2.10637 10.7392 19.3412 0 0 0
170 10 3 0.033922 41.0162 10.8585 19.8728 -1 0 0
171 10 3 0.033922 41.6718 9.26011 19.3934 -1 0 0
172 10 3 0.046089 -2.18698 10.8779 21.7918 0 0 0
173 10 3 0.046089 41.4164 9.61152 21.9832 -1 0 0
174 10 4 0.121889 -1.45609 7.93026 20.92 0 0 0
175 10 4 0.121889 0.318957 7.92534 22.4575 0 0 0
176 10 3 0.046089 -0.149677 10.931 22.6818 0 0 0
177 10 3 0.046089 1.07001 10.0579 -0.714652 0 0 1
178 10 3 0.033922 -0.683136 9.17184 0.925443 0 0 1
179 10 3 0.033922 -0.608865 10.944 0.93462 0 0 1
180 10 3 0.033922 -1.82972 10.1681 -0.0386889 0 0 1
181 11 1 -0.091211 38.2556 12.0001 20.1285 -1 0 -1
182 11 1 -0.050311 39.1782 13.162 20.6147 -1 0 -1
183 11 2 -0.174311 38.4352 14.4519 20.932 -1 0 -1
184 11 2 -0.174311 39.0993 15.601 21.3209 -1 0 -1
185 11 1 -0.050311 40.5802 15.5345 21.4851 -1 0 -1
186 11 1 -0.091211 41.2253 16.8611 21.2183 -1 0 -1
187 11 3 0.033922 37.4854 11.665 20.8292 -1 0 -1
188 11 3 0.033922 38.8486 11.1242 19.8497 -1 0 -1
189 11 3 0.033922 37.7588 12.4094 19.244 -1 0 -1
190 11 3 0.046089 39.7745 12.7802 21.4485 -1 0 -1
191 11 3 0.046089 39.8441 13.3612 19.77 -1 0 -1
192 11 4 0.121889 37.3558 14.5639 20.95 -1 0 -1
193 11 4 0.121889 38.4664 16.4623 21.5099 -1 0 -1
194 11 3 0.046089 41.0836 14.788 20.8638 -1 0 -1
195 11 3 0.046089 40.8023 15.1544 22.4866 -1 0 -1
196 11 3 0.033922 -2.47352 16.9175 21.4149 0 0 -1
197 11 3 0.033922 41.094 17.0977 20.1584 -1 0 -1
198 11 3 0.033922 40.7232 17.6079 21.8402 -1 0 -1
199 12 1 -0.091211 40.1759 19.1918 4.69806 -1 0 0
200 12 1 -0.050311 41.0194 19.3527 5.94183 -1 0 0
201 12 2 -0.174311 40.0832 20.3596 6.66547 -1 0 0
202 12 2 -0.174311 40.4548 21.4312 7.41499 -1 0 0
203 12 1 -0.050311 -2.88987 21.5723 8.04526 0 0 0
204 12 1 -0.091211 -2.78395 -0.0647089 8.97993 0 1 0
205 12 3 0.033922 39.1904 18.742 4.84987 -1 0 0
206 12 3 0.033922 40.7729 18.6183 3.98308 -1 0 0
207 12 3 0.033922 39.9865 20.143 4.19199 -1 0 0
208 12 3 0.046089 41.1058 18.4069 6.4847 -1 0 0
209 12 3 0.046089 -2.77841 19.8097 5.75274 0 0 0
210 12 4 0.121889 39.0398 20.4361 6.37671 -1 0 0
211 12 4 0.121889 39.6312 22.0679 7.72227 -1 0 0
212 12 3 0.046089 -2.15908 21.5969 7.23164 0 0 0
213 12 3 0.046089 -2.66076 20.761 8.74226 0 0 0
214 12 3 0.033922 -2.64551 0.84094 8.38221 0 1 0
215 12 3 0.033922 41.1062 0.148704 9.58894 -1 1 0
216 12 3 0.033922 -1.9591 -0.172546 9.69029 0 1 0
217 13 1 -0.091211 3.29676 10.1265 4.75578 0 0 0
218 13 1 -0.050311 3.04817 11.5492 4.78293 0 0 0
219 13 2 -0.174311 3.47968 12.1001 6.16994 0 0 0
220 13 2 -0.174311 3.14868 13.4281 6.69558 0 0 0
221 13 1 -0.050311 2.21547 14.5095 6.13929 0 0 0
222 13 1 -0.091211 0.85384 14.2632 6.8664 0 0 0
223 13 3 0.033922 3.25568 9.71782 3.74188 0 0 0
224 13 3 0.033922 2.50123 9.67493 5.35566 0 0 0
225 13 3 0.033922 4.23483 9.77675 5.1966 0 0 0
226 13 3 0.046089 3.53903 12.0362 3.93528 0 0 0
227 13 3 0.046089 1.9686 11.7251 4.7702 0 0 0
228 13 4 0.121889 4.01297 11.4362 6.84286 0 0 0
229 13 4 0.121889 3.52645 13.6651 7.68512 0 0 0
230 13 3 0.046089 2.08109 14.3617 5.06375 0 0 0
231 13 3 0.046089 2.53984 15.5275 6.37402 0 0 0
232 13 3 0.033922 0.0899088 14.9334 6.46164 0 0 0
233 13 3 0.033922 0.629733 13.2127 6.65959 0 0 0
234 13 3 0.033922 0.910844 14.4197 7.94758 0 0 0
235 14 1 -0.091211 6.6406 14.0425 11.5217 0 0 0
236 14 1 -0.050311 6.32198 12.9658 12.5818 0 0 0
237 14 2 -0.174311 5.09919 12.1831 12.2521 0 0 0
238 14 2 -0.174311 4.5272 11.1724 13.1119 0 0 0
239 14 1 -0.050311 5.01604 10.8505 14.4913 0 0 0
240 14 1 -0.091211 4.07467 11.4238 15.5455 0 0 0
241 14 3 0.033922 6.63645 13.6318 10.5078 0 0 0
242 14 3 0.033922 7.58476 14.4861 11.851 0 0 0
243 14 3 0.033922 5.90279 14.8497 11.5486 0 0 0
244 14 3 0.046089 7.17344 12.2797 12.5533 0 0 0
245 14 3 0.046089 6.30653 13.438 13.5684 0 0 0
246 14 4 0.121889 4.59644 12.4136 11.3182 0 0 0
247 14 4 0.121889 3.67554 10.6148 12.7353 0 0 0
248 14 3 0.046089 6.03007 11.2408 14.6178 0 0 0
249 14 3 0.046089 5.02699 9.75738 14.5305 0 0 0
250 14 3 0.033922 3.79318 12.4492 15.2889 0 0 0
251 14 3 0.033922 3.18616 10.7908 15.4645 0 0 0
252 14 3 0.033922 4.4639 11.3959 16.5674 0 0 0
253 15 1 -0.091211 -0.015819 18.2217 18.1469 0 0 0
254 15 1 -0.050311 1.15249 17.3104 17.8918 0 0 0
255 15 2 -0.174311 1.22995 17.1309 16.3883 0 0 0
256 15 2 -0.174311 1.98262 16.1046 15.8061 0 0 0
257 15 1 -0.050311 2.78832 15.1357 16.5889 0 0 0
258 15 1 -0.091211 4.22763 15.2161 16.1538 0 0 0
259 15 3 0.033922 -0.00133279 19.1296 17.5369 0 0 0
260 15 3 0.033922 0.0461731 18.5716 19.1815 0 0 0
261 15 3 0.033922 -0.923472 17.6155 18.0736 0 0 0
262 15 3 0.046089 2.08251 17.6786 18.3347 0 0 0
263 15 3 0.046089 1.04227 16.3398 18.3842 0 0 0
264 15 4 0.121889 0.598635 17.6793 15.6964 0 0 0
265 15 4 0.121889 2.05962 15.8892 14.7451 0 0 0
266 15 3 0.046089 2.43481 14.1194 16.3918 0 0 0
267 15 3 0.046089 2.7548 15.3197 17.6667 0 0 0
268 15 3 0.033922 4.21731 14.8497 15.1232 0 0 0
269 15 3 0.033922 4.63721 16.2238 16.2698 0 0 0
270 15 3 0.033922 4.9029 14.5377 16.6834 0 0 0
271 16 1 -0.091211 8.79221 18.8317 3.2377 0 0 0
272 16 1 -0.050311 7.41902 19.1403 3.85029 0 0 0
273 16 2 -0.174311 6.37852 18.1501 3.36923 0 0 0
274 16 2 -0.174311 5.00502 18.2411 3.61278 0 0 0
275 16 1 -0.050311 4.2673 19.2686 4.36255 0 0 0
276 16 1 -0.091211 3.43073 20.2439 3.52607 0 0 0
277 16 3 0.033922 9.17708 17.8621 3.56701 0 0 0
278 16 3 0.033922 9.37753 19.702 3.5485 0 0 0
279 16 3 0.033922 8.68945 18.8555 2.14886 0 0 0
280 16 3 0.046089 7.52455 19.1085 4.93866 0 0 0
281 16 3 0.046089 7.18912 20.1839 3.61643 0 0 0
282 16 4 0.121889 6.64567 17.195 2.92811 0 0 0
283 16 4 0.121889 4.42344 17.3776 3.30609 0 0 0
284 16 3 0.046089 4.99216 19.7551 5.02175 0 0 0
285 16 3 0.046089 3.63758 18.7364 5.0815 0 0 0
286 16 3 0.033922 2.86332 20.9438 4.14646 0 0 0
287 16 3 0.033922 4.06752 20.8611 2.88564 0 0 0
288 16 3 0.033922 2.80772 19.7806 2.75548 0 0 0
289 17 1 -0.091211 6.52376 15.2387 7.76917 0 0 0
290 17 1 -0.050311 5.34181 16.1552 8.00633 0 0 0
291 17 2 -0.174311 5.86713 17.4433 8.55935 0 0 0
292 17 2 -0.174311 5.06762 18.4163 9.12665 0 0 0
293 17 1 -0.050311 3.56248 18.4458 8.97671 0 0 0
294 17 1 -0.091211 3.10221 19.8182 8.61067 0 0 0
295 17 3 0.033922 7.3646 15.8348 7.40269 0 0 0
296 17 3 0.033922 6.24372 14.433 7.08425 0 0 0
297 17 3 0.033922 6.79166 14.7648 8.718 0 0 0
298 17 3 0.046089 4.77464 16.3467 7.09076 0 0 0
299 17 3 0.046089 4.64718 15.6902 8.71199 0 0 0
300 17 4 0.121889 6.94517 17.568 8.54373 0 0 0
301 17 4 0.121889 5.57905 19.2749 9.55005 0 0 0
302 17 3 0.046089 3.23969 18.1571 9.98128 0 0 0
303 17 3 0.046089 3.21014 17.7009 8.25729 0 0 0
304 17 3 0.033922 2.00985 19.8095 8.55364 0 0 0
305 17 3 0.033922 3.39863 20.591 9.32599 0 0 0
306 17 3 0.033922 3.28239 19.9888 7.54524 0 0 0
307 18 1 -0.091211 1.04059 3.02936 0.860931 0 1 1
308 18 1 -0.050311 1.02279 1.51219 0.707577 0 1 1
309 18 2 -0.174311 2.47116 1.08379 0.51318 0 1 1
310 18 2 -0.174311 2.81478 -0.0587862 -0.162481 0 1 1
311 18 1 -0.050311 1.79485 21.8631 -0.719889 0 0 1
312 18 1 -0.091211 1.11815 20.9436 0.302961 0 0 1
313 18 3 0.033922 1.5415 3.49748 0.0085128 0 1 1
314 18 3 0.033922 1.66609 3.23462 1.73459 0 1 1
315 18 3 0.033922 0.071153 3.5185 0.993276 0 1 1
316 18 3 0.046089 0.607043 1.01897 1.59106 0 1 1
317 18 3 0.046089 0.405402 1.23969 -0.153367 0 1 1
318 18 4 0.121889 3.32494 1.70452 0.765654 0 1 1
319 18 4 0.121889 3.88738 -0.193831 -0.258705 0 1 1
320 18 3 0.046089 2.29708 21.2024 22.816 0 0 0
321 18 3 0.046089 1.08006 -0.405984 -1.29959 0 1 1
322 18 3 0.033922 0.429143 20.2877 -0.237073 0 0 1
323 18 3 0.033922 1.91061 20.3677 0.789687 0 0 1
324 18 3 0.033922 0.542437 21.5357 1.02038 0 0 1
325 19 1 -0.091211 12.8898 21.5773 1.59257 0 -1 0
326 19 1 -0.050311 14.3003 20.9442 1.49722 0 -1 0
327 19 2 -0.174311 15.2031 21.2208 2.71628 0 -1 0
328 19 2 -0.174311 15.7933 -0.418408 3.06443 0 0 0
329 19 1 -0.050311 15.551 0.863237 2.29343 0 0 0
330 19 1 -0.091211 16.7047 1.85145 2.35049 0 0 0
331 19 3 0.033922 12.2278 20.9656 2.21243 0 -1 0
332 19 3 0.033922 12.4149 21.5702 0.607115 0 -1 0
333 19 3 0.033922 12.99 -0.31329 2.08874 0 0 0
334 19 3 0.046089 14.0643 19.883 1.37548 0 -1 0
335 19 3 0.046089 14.8842 21.316 0.650182 0 -1 0
336 19 4 0.121889 15.3999 20.3337 3.30985 0 -1 0
337 19 4 0.121889 16.4321 -0.448437 3.94137 0 0 0
338 19 3 0.046089 14.7192 1.36736 2.79397 0 0 0
339 19 3 0.046089 15.1921 0.611177 1.29125 0 0 0
340 19 3 0.033922 17.6075 1.37804 1.95389 0 0 0
341 19 3 0.033922 16.5238 2.83106 1.89853 0 0 0
342 19 3 0.033922 16.8691 1.88495 3.43148 0 0 0
343 20 1 -0.091211 13.8866 4.74717 5.48074 0 0 0
344 20 1 -0.050311 13.3162 4.61177 6.84511 0 0 0
345 20 2 -0.174311 12.2272 3.55766 6.77574 0 0 0
346 20 2 -0.174311 10.9904 3.69119 7.42151 0 0 0
347 20 1 -0.050311 10.5945 4.82109 8.28731 0 0 0
348 20 1 -0.091211 9.85672 5.93212 7.52958 0 0 0
349 20 3 0.033922 14.3671 3.83134 5.12429 0 0 0
350 20 3 0.033922 14.579 5.59254 5.53115 0 0 0
351 20 3 0.033922 13.0711 4.98208 4.79051 0 0 0
352 20 3 0.046089 14.0951 4.37737 7.57659 0 0 0
353 20 3 0.046089 12.8568 5.56791 7.11218 0 0 0
354 20 4 0.121889 12.4519 2.69351 6.15867 0 0 0
355 20 4 0.121889 10.3119 2.85887 7.26391 0 0 0
356 20 3 0.046089 11.4705 5.28336 8.75156 0 0 0
357 20 3 0.046089 9.90738 4.44794 9.05233 0 0 0
358 20 3 0.033922 9.66219 6.79202 8.17718 0 0 0
359 20 3 0.033922 10.4216 6.2587 6.65159 0 0 0
360 20 3 0.033922 8.88336 5.57297 7.18292 0 0 0
361 21 1 -0.091211 5.32389 0.793309 21.7354 0 0 0
362 21 1 -0.050311 4.61276 1.10906 20.4588 0 0 0
363 21 2 -0.174311 5.3626 0.337937 19.353 0 0 0
364 21 2 -0.174311 4.81028 -0.459294 18.3763 0 0 0
365 21 1 -0.050311 3.30896 22.1773 18.2429 0 -1 0
366 21 1 -0.091211 2.82932 22.001 16.7925 0 -1 0
367 21 3 0.033922 5.10739 -0.208796 22.1169 0 0 0
368 21 3 0.033922 5.07494 1.55565 22.4794 0 0 0
369 21 3 0.033922 6.40039 0.899978 21.5731 0 0 0
370 21 3 0.046089 3.63183 0.694159 20.7083 0 0 0
371 21 3 0.046089 4.59175 2.19445 20.3243 0 0 0
372 21 4 0.121889 6.43897 0.471775 19.3915 0 0 0
373 21 4 0.121889 5.53469 22.0326 17.6569 0 -1 0
374 21 3 0.046089 2.7417 0.185525 18.5899 0 0 0
375 21 3 0.046089 2.97563 21.2856 18.7817 0 -1 0
376 21 3 0.033922 1.78588 22.3268 16.7514 0 -1 0
377 21 3 0.033922 3.36399 -0.219936 16.084 0 0 0
378 21 3 0.033922 2.79131 20.9484 16.4975 0 -1 0
379 22 1 -0.091211 9.51065 3.10299 21.9255 0 0 0
380 22 1 -0.050311 10.5531 2.28628 22.7146 0 0 0
381 22 2 -0.174311 10.1754 0.793768 22.6148 0 0 0
382 22 2 -0.174311 9.52594 -0.0272651 -0.724998 0 0 1
383 22 1 -0.050311 9.10264 0.217247 0.686806 0 0 1
384 22 1 -0.091211 9.07784 21.7714 1.44301 0 -1 1
385 22 3 0.033922 9.42621 2.82081 20.872 0 0 0
386 22 3 0.033922 9.7449 4.16507 22.0427 0 0 0
387 22 3 0.033922 8.55193 2.88215 22.4037 0 0 0
388 22 3 0.046089 11.5489 2.48016 22.3054 0 0 0
389 22 3 0.046089 10.7058 2.53888 -0.480598 0 0 1
390 22 4 0.121889 10.5664 0.301774 21.7299 0 0 0
391 22 4 0.121889 9.3481 21.7991 -1.0028 0 -1 1
392 22 3 0.046089 8.11577 0.685713 0.630168 0 0 1
393 22 3 0.046089 9.77672 0.894725 1.21902 0 0 1
394 22 3 0.033922 8.55646 -0.94295 2.39355 0 0 1
395 22 3 0.033922 8.52514 20.9911 0.911745 0 -1 1
396 22 3 0.033922 10.0813 21.3568 1.5763 0 -1 1
397 23 1 -0.091211 10.4232 3.54105 3.40834 0 0 0
398 23 1 -0.050311 11.0569 4.61241 2.54409 0 0 0
399 23 2 -0.174311 10.4854 4.81985 1.19301 0 0 0
400 23 2 -0.174311 10.5397 6.02478 0.466498 0 0 0
401 23 1 -0.050311 11.2267 7.29687 0.848486 0 0 0
402 23 1 -0.091211 11.0738 8.23025 -0.339459 0 0 0
403 23 3 0.033922 9.3693 3.42007 3.14159 0 0 0
404 23 3 0.033922 10.5052 3.75618 4.47778 0 0 0
405 23 3 0.033922 10.8957 2.58991 3.14609 0 0 0
406 23 3 0.046089 11.0229 5.52271 3.14977 0 0 0
407 23 3 0.046089 12.1339 4.50016 2.38927 0 0 0
408 23 4 0.121889 9.88012 3.99059 0.840993 0 0 0
409 23 4 0.121889 10.0147 5.95396 -0.480823 0 0 0
410 23 3 0.046089 12.2954 7.13612 1.01811 0 0 0
411 23 3 0.046089 10.8359 7.76199 1.75818 0 0 0
412 23 3 0.033922 11.1265 9.18708 0.18811 0 0 0
413 23 3 0.033922 11.8191 8.09667 -1.12895 0 0 0
414 23 3 0.033922 10.1289 8.03241 -0.853803 0 0 0
415 24 1 -0.091211 8.00552 15.4728 0.365728 0 0 0
416 24 1 -0.050311 7.1837 14.4959 1.2069 0 0 0
417 24 2 -0.174311 7.96762 13.1505 1.3291 0 0 0
418 24 2 -0.174311 7.85115 12.1892 2.3359 0 0 0
419 24 1 -0.050311 6.93346 12.2274 3.5468 0 0 0
420 24 1 -0.091211 7.60943 12.5103 4.89922 0 0 0
421 24 3 0.033922 9.03041 15.6878 0.681916 0 0 0
422 24 3 0.033922 7.43673 16.4051 0.303378 0 0 0
423 24 3 0.033922 8.08716 15.0919 -0.656498 0 0 0
424 24 3 0.046089 7.07085 14.975 2.18385 0 0 0
425 24 3 0.046089 6.22193 14.2743 0.735204 0 0 0
426 24 4 0.121889 8.57524 12.8659 0.475957 0 0 0
427 24 4 0.121889 8.49519 11.3243 2.21281 0 0 0
428 24 3 0.046089 6.3768 11.2868 3.59085 0 0 0
429 24 3 0.046089 6.20174 13.0145 3.34242 0 0 0
430 24 3 0.033922 8.47275 11.8472 5.00669 0 0 0
431 24 3 0.033922 7.94909 13.5428 5.0227 0 0 0
432 24 3 0.033922 6.91811 12.2815 5.71554 0 0 0
433 25 1 -0.091211 7.67708 9.51537 10.2019 0 0 0
434 25 1 -0.050311 6.5525 8.95226 9.33491 0 0 0
435 25 2 -0.174311 5.28031 8.58174 10.1089 0 0 0
436 25 2 -0.174311 4.07079 8.23157 9.52618 0 0 0
437 25 1 -0.050311 3.77183 8.34375 8.01077 0 0 0
438 25 1 -0.091211 3.48597 6.86365 7.57162 0 0 0
439 25 3 0.033922 7.41471 10.5231 10.5368 0 0 0
440 25 3 0.033922 8.6846 9.55329 9.77753 0 0 0
441 25 3 0.033922 7.77749 9.00141 11.1623 0 0 0
442 25 3 0.046089 6.26177 9.68563 8.5771 0 0 0
443 25 3 0.046089 6.94151 8.1238 8.73577 0 0 0
444 25 4 0.121889 5.31494 8.53792 11.1929 0 0 0
445 25 4 0.121889 3.21365 7.88947 10.0974 0 0 0
446 25 3 0.046089 4.4858 8.87823 7.37736 0 0 0
447 25 3 0.046089 2.94658 9.06034 7.96552 0 0 0
448 25 3 0.033922 2.64213 6.43053 8.11657 0 0 0
449 25 3 0.033922 3.18824 6.8284 6.51957 0 0 0
450 25 3 0.033922 4.41181 6.28262 7.61405 0 0 0
451 26 1 -0.091211 2.98554 3.95027 16.6329 0 0 0
452 26 1 -0.050311 4.29811 4.71746 16.2325 0 0 0
453 26 2 -0.174311 4.05266 5.5493 14.959 0 0 0
454 26 2 -0.174311 4.93001 6.40984 14.4218 0 0 0
455 26 1 -0.050311 6.36005 6.74561 14.9748 0 0 0
456 26 1 -0.091211 7.31423 6.7967 13.7555 0 0 0
457 26 3 0.033922 2.20321 4.66362 16.908 0 0 0
458 26 3 0.033922 3.14598 3.30265 17.4998 0 0 0
459 26 3 0.033922 2.57154 3.30499 15.8526 0 0 0
460 26 3 0.046089 4.69193 5.34592 17.0366 0 0 0
461 26 3 0.046089 5.05139 3.95208 16.0243 0 0 0
462 26 4 0.121889 3.13042 5.45871 14.394 0 0 0
463 26 4 0.121889 4.62138 6.90644 13.5074 0 0 0
464 26 3 0.046089 6.75215 6.09226 15.7596 0 0 0
465 26 3 0.046089 6.32079 7.7396 15.4298 0 0 0
466 26 3 0.033922 8.30727 7.12629 14.0746 0 0 0
467 26 3 0.033922 7.36924 5.83813 13.2314 0 0 0
468 26 3 0.033922 6.93256 7.56002 13.0712 0 0 0
469 27 1 -0.091211 15.194 4.54725 20.4111 0 0 0
470 27 1 -0.050311 14.316 5.57264 19.6886 0 0 0
471 27 2 -0.174311 12.9923 6.01556 20.3836 0 0 0
472 27 2 -0.174311 12.3931 7.25361 20.238 0 0 0
473 27 1 -0.050311 13.043 8.46074 19.564 0 0 0
474 27 1 -0.091211 12.3509 8.75885 18.2607 0 0 0
475 27 3 0.033922 16.1113 4.42398 19.8282 0 0 0
476 27 3 0.033922 14.7857 3.53839 20.5214 0 0 0
477 27 3 0.033922 15.5215 4.96993 21.3655 0 0 0
478 27 3 0.046089 14.9439 6.39018 19.3227 0 0 0
479 27 3 0.046089 13.9664 5.06542 18.7847 0 0 0
480 27 4 0.121889 12.5458 5.27913 21.0441 0 0 0
481 27 4 0.121889 11.5577 7.49509 20.8874 0 0 0
482 27 3 0.046089 14.1284 8.34778 19.4886 0 0 0
483 27 3 0.046089 13.0474 9.36618 20.1778 0 0 0
484 27 3 0.033922 12.8201 9.65142 17.8366 0 0 0
485 27 3 0.033922 12.4732 7.91224 17.5788 0 0 0
486 27 3 0.033922 11.2707 8.92939 18.2825 0 0 0
487 28 1 -0.091211 4.67831 9.61403 0.974629 0 0 0
488 28 1 -0.050311 4.38216 8.84415 -0.261849 0 0 0
489 28 2 -0.174311 3.93173 7.41254 0.00348294 0 0 0
490 28 2 -0.174311 4.51243 6.26435 -0.576058 0 0 0
491 28 1 -0.050311 5.58609 6.30425 22.5808 0 0 -1
492 28 1 -0.091211 5.52881 4.97429 21.7428 0 0 -1
493 28 3 0.033922 5.05396 10.6035 0.69819 0 0 0
494 28 3 0.033922 5.48545 9.17909 1.57126 0 0 0
495 28 3 0.033922 3.81413 9.72234 1.63651 0 0 0
496 28 3 0.046089 3.61344 9.31513 -0.881429 0 0 0
497 28 3 0.046089 5.24886 8.80209 -0.927933 0 0 0
498 28 4 0.121889 3.13707 7.30501 0.734899 0 0 0
499 28 4 0.121889 3.99726 5.3382 -0.341874 0 0 0
500 28 3 0.046089 6.59565 6.50931 -1.29992 0 0 0
501 28 3 0.046089 5.47762 7.14768 21.8927 0 0 -1
502 28 3 0.033922 6.14673 5.09008 20.8476 0 0 -1
503 28 3 0.033922 5.82306 4.05462 22.2569 0 0 -1
504 28 3 0.033922 4.52373 4.8028 21.3466 0 0 -1
505 29 1 -0.091211 14.0668 10.2695 14.005 0 0 0
506 29 1 -0.050311 12.5558 10.0719 14.2858 0 0 0
507 29 2 -0.174311 12.0319 11.0308 15.3494 0 0 0
508 29 2 -0.174311 10.6591 11.3268 15.4808 0 0 0
509 29 1 -0.050311 9.56622 10.5109 14.8417 0 0 0
510 29 1 -0.091211 8.36831 10.5205 15.7882 0 0 0
511 29 3 0.033922 14.6633 10.0548 14.8965 0 0 0
512 29 3 0.033922 14.1746 11.3195 13.7175 0 0 0
513 29 3 0.033922 14.449 9.63907 13.1969 0 0 0
514 29 3 0.046089 11.9532 10.184 13.3797 0 0 0
515 29 3 0.046089 12.4768 9.05001 14.6681 0 0 0
516 29 4 0.121889 12.7801 11.5707 15.921 0 0 0
517 29 4 0.121889 10.4307 12.0077 16.2946 0 0 0
518 29 3 0.046089 9.86306 9.47197 14.6708 0 0 0
519 29 3 0.046089 9.23182 10.9146 13.8816 0 0 0
520 29 3 0.033922 8.60355 9.91211 16.6664 0 0 0
521 29 3 0.033922 8.06712 11.5476 16.014 0 0 0
522 29 3 0.033922 7.44425 10.0799 15.4027 0 0 0
523 30 1 -0.091211 8.93692 10.9554 22.7015 0 0 0
524 30 1 -0.050311 8.39706 11.8105 21.5673 0 0 0
525 30 2 -0.174311 9.52361 11.9389 20.6197 0 0 0
526 30 2 -0.174311 9.3293 12.6663 19.4673 0 0 0
527 30 1 -0.050311 8.06471 13.299 19.032 0 0 0
528 30 1 -0.091211 8.44317 14.5089 18.1161 0 0 0
529 30 3 0.033922 8.97702 9.91176 22.3762 0 0 0
530 30 3 0.033922 8.32391 10.9772 -0.641377 0 0 1
531 30 3 0.033922 9.91561 11.3263 -1.22905 0 0 1
532 30 3 0.046089 7.48057 11.4288 21.108 0 0 0
533 30 3 0.046089 8.32482 12.836 21.9411 0 0 0
534 30 4 0.121889 10.4788 11.4454 20.7679 0 0 0
535 30 4 0.121889 10.1323 12.7482 18.7417 0 0 0
536 30 3 0.046089 7.54397 13.7609 19.8759 0 0 0
537 30 3 0.046089 7.38876 12.5788 18.5619 0 0 0
538 30 3 0.033922 8.93106 14.1781 17.1946 0 0 0
539 30 3 0.033922 7.60008 15.1708 17.8977 0 0 0
540 30 3 0.033922 9.17831 15.1212 18.6465 0 0 0
541 31 1 -0.091211 9.71195 20.3985 18.1093 0 0 0
542 31 1 -0.050311 9.99148 19.7733 19.4356 0 0 0
543 31 2 -0.174311 11.0949 20.3355 20.2613 0 0 0
544 31 2 -0.174311 11.2664 20.0075 21.5738 0 0 0
545 31 1 -0.050311 10.2595 19.1554 22.3689 0 0 0
546 31 1 -0.091211 10.9252 18.7402 -0.669817 0 0 1
547 31 3 0.033922 10.4896 21.0728 17.7388 0 0 0
548 31 3 0.033922 8.79314 20.992 18.1234 0 0 0
549 31 3 0.033922 9.45941 19.601 17.4044 0 0 0
550 31 3 0.046089 9.01732 19.7759 19.9332 0 0 0
551 31 3 0.046089 10.2743 18.7188 19.367 0 0 0
552 31 4 0.121889 11.9055 20.9046 19.8175 0 0 0
553 31 4 0.121889 12.1169 20.3 22.1814 0 0 0
554 31 3 0.046089 9.96146 18.2898 21.77 0 0 0
555 31 3 0.046089 9.37563 19.7518 -1.63561 0 0 1
556 31 3 0.033922 11.7729 18.0566 -0.773144 0 0 1
557 31 3 0.033922 11.2146 19.634 -0.109378 0 0 1
558 31 3 0.033922 10.2334 18.1753 -0.0381646 0 0 1
559 32 1 -0.091211 13.8684 16.0592 2.07035 0 0 0
560 32 1 -0.050311 15.2469 15.7174 2.62566 0 0 0
561 32 2 -0.174311 15.5313 16.6099 3.84138 0 0 0
562 32 2 -0.174311 16.6887 17.3411 3.98086 0 0 0
563 32 1 -0.050311 17.8572 17.4393 2.99764 0 0 0
564 32 1 -0.091211 19.1026 17.7496 3.83888 0 0 0
565 32 3 0.033922 13.1006 16.1552 2.84367 0 0 0
566 32 3 0.033922 13.5708 15.3961 1.25273 0 0 0
567 32 3 0.033922 13.9739 17.0564 1.6332 0 0 0
568 32 3 0.046089 15.2534 14.6841 2.98456 0 0 0
569 32 3 0.046089 15.9869 15.8696 1.83453 0 0 0
570 32 4 0.121889 14.8162 16.7529 4.64529 0 0 0
571 32 4 0.121889 16.7734 17.9152 4.89809 0 0 0
572 32 3 0.046089 17.7307 18.1845 2.2069 0 0 0
573 32 3 0.046089 18.0073 16.488 2.47883 0 0 0
574 32 3 0.033922 20.0083 17.8296 3.23071 0 0 0
575 32 3 0.033922 19.0198 18.6797 4.40858 0 0 0
576 32 3 0.033922 19.2282 16.9842 4.61029 0 0 0
577 33 1 -0.091211 9.9362 22.0922 6.50637 0 0 0
578 33 1 -0.050311 8.74656 21.179 6.57926 0 0 0
579 33 2 -0.174311 8.3165 21.1105 8.01706 0 0 0
580 33 2 -0.174311 7.32956 21.9406 8.52113 0 0 0
581 33 1 -0.050311 6.52235 0.0705114 7.80611 0 1 0
582 33 1 -0.091211 5.6232 0.9177 8.62603 0 1 0
583 33 3 0.033922 10.8145 21.6306 6.96698 0 0 0
584 33 3 0.033922 9.7897 0.148335 7.08535 0 1 0
585 33 3 0.033922 10.2073 22.3798 5.48633 0 0 0
586 33 3 0.046089 8.02713 21.722 5.95942 0 0 0
587 33 3 0.046089 8.8594 20.2088 6.0867 0 0 0
588 33 4 0.121889 8.92254 20.4896 8.66914 0 0 0
589 33 4 0.121889 7.11839 21.8336 9.58038 0 0 0
590 33 3 0.046089 5.8478 -0.463113 7.1302 0 1 0
591 33 3 0.046089 7.10984 0.690652 7.1228 0 1 0
592 33 3 0.033922 6.06837 1.4091 9.49609 0 1 0
593 33 3 0.033922 5.14661 1.67285 7.99418 0 1 0
594 33 3 0.033922 4.84761 0.211871 8.93725 0 1 0
595 34 1 -0.091211 11.9422 14.2362 -1.26903 0 0 1
596 34 1 -0.050311 13.2386 13.9304 22.2571 0 0 0
597 34 2 -0.174311 13.4207 14.8232 21.1098 0 0 0
598 34 2 -0.174311 14.243 14.4221 20.0338 0 0 0
599 34 1 -0.050311 14.9014 13.0409 19.8701 0 0 0
600 34 1 -0.091211 15.3021 12.8701 18.3674 0 0 0
601 34 3 0.033922 11.9559 15.2505 -0.859467 0 0 1
602 34 3 0.033922 11.7811 13.5654 -0.420086 0 0 1
603 34 3 0.033922 11.0736 14.2297 22.3146 0 0 0
604 34 3 0.046089 14.1724 14.0921 -1.44502 0 0 1
605 34 3 0.046089 13.3554 12.8708 22.0117 0 0 0
606 34 4 0.121889 12.843 15.7413 21.147 0 0 0
607 34 4 0.121889 14.2902 15.15 19.2302 0 0 0
608 34 3 0.046089 14.2789 12.1837 20.1425 0 0 0
609 34 3 0.046089 15.7186 13.0023 20.5963 0 0 0
610 34 3 0.033922 16.187 13.4434 18.076 0 0 0
611 34 3 0.033922 15.5092 11.8229 18.1286 0 0 0
612 34 3 0.033922 14.5038 13.2246 17.7089 0 0 0
613 35 1 -0.091211 4.65633 13.4607 21.9726 0 0 0
614 35 1 -0.050311 3.35569 13.0535 21.382 0 0 0
615 35 2 -0.174311 2.34629 14.1985 21.1539 0 0 0
616 35 2 -0.174311 1.16063 14.0815 20.4342 0 0 0