ITEM: TIMESTEP
13600
ITEM: NUMBER OF ATOMS
1800
ITEM: BOX BOUNDS pp pp pp
-7.7591083166458219e-01 3.9583926331664401e+01
-4.4362234553370250e-01 2.2052277845533872e+01
-1.9114993499311339e+00 2.3165232849931279e+01
ITEM: ATOMS id mol type q x y z ix iy iz
1 1 1 -0.091211 6.14682 17.6508 0.807933 0 -1 0
2 1 1 -0.050311 6.99636 18.8854 0.839365 0 -1 0
3 1 2 -0.174311 6.5458 19.6576 2.1005 0 -1 0
4 1 2 -0.174311 5.56124 20.5782 2.23213 0 -1 0
5 1 1 -0.050311 4.55373 20.9153 1.12742 0 -1 0
6 1 1 -0.091211 3.62971 22.0261 1.45585 0 -1 0
7 1 3 0.033922 6.17241 17.1234 1.76594 0 -1 0
8 1 3 0.033922 6.49073 17.0141 -0.0124025 0 -1 0
9 1 3 0.033922 5.07988 17.8416 0.660072 0 -1 0
10 1 3 0.046089 8.05507 18.6156 0.784817 0 -1 0
11 1 3 0.046089 6.74144 19.5242 -0.0112886 0 -1 0
12 1 4 0.121889 7.03949 19.4644 3.04755 0 -1 0
13 1 4 0.121889 5.31859 20.9234 3.23208 0 -1 0
14 1 3 0.046089 3.88112 20.0664 0.973791 0 -1 0
15 1 3 0.046089 4.96547 21.0199 0.119415 0 -1 0
16 1 3 0.033922 2.83604 -0.501832 0.703739 0 0 0
17 1 3 0.033922 3.17519 21.9118 2.44423 0 -1 0
18 1 3 0.033922 4.24259 0.430448 1.35299 0 0 0
19 2 1 -0.091211 7.14803 3.2014 9.9707 0 0 0
20 2 1 -0.050311 6.9688 3.9143 11.3603 0 0 0
21 2 2 -0.174311 6.22625 3.00002 12.336 0 0 0
22 2 2 -0.174311 6.77745 2.04532 13.1578 0 0 0
23 2 1 -0.050311 8.30394 1.67791 13.2064 0 0 0
24 2 1 -0.091211 9.01221 2.59903 14.2825 0 0 0
25 2 3 0.033922 6.07619 3.03637 9.82722 0 0 0
26 2 3 0.033922 7.75375 2.29923 10.0963 0 0 0
27 2 3 0.033922 7.51732 3.83375 9.1581 0 0 0
28 2 3 0.046089 7.98958 4.12665 11.6913 0 0 0
29 2 3 0.046089 6.4285 4.8579 11.2408 0 0 0
30 2 4 0.121889 5.16574 3.23046 12.3201 0 0 0
31 2 4 0.121889 6.16658 1.4839 13.8575 0 0 0
32 2 3 0.046089 8.7095 1.6819 12.1905 0 0 0
33 2 3 0.046089 8.40316 0.607847 13.4106 0 0 0
34 2 3 0.033922 8.49545 2.41657 15.2292 0 0 0
35 2 3 0.033922 10.0501 2.28534 14.4277 0 0 0
36 2 3 0.033922 8.97388 3.65356 13.9943 0 0 0
37 3 1 -0.091211 -0.418527 4.06551 5.28231 0 0 0
38 3 1 -0.050311 0.0513881 4.99834 4.1331 0 0 0
39 3 2 -0.174311 1.15535 6.00683 4.53312 0 0 0
40 3 2 -0.174311 1.64694 6.96858 3.64522 0 0 0
41 3 1 -0.050311 1.09858 7.09352 2.23454 0 0 0
42 3 1 -0.091211 1.88931 8.19697 1.41875 0 0 0
43 3 3 0.033922 0.374448 3.41698 5.66598 0 0 0
44 3 3 0.033922 39.1474 3.46374 4.83052 -1 0 0
45 3 3 0.033922 39.4598 4.73461 6.00135 -1 0 0
46 3 3 0.046089 0.442477 4.28 3.40674 0 0 0
47 3 3 0.046089 -0.866244 5.44713 3.74174 0 0 0
48 3 4 0.121889 1.57862 5.86933 5.523 0 0 0
49 3 4 0.121889 2.31103 7.65038 4.16685 0 0 0
50 3 3 0.046089 0.0221855 7.2855 2.26888 0 0 0
51 3 3 0.046089 1.1928 6.14007 1.70671 0 0 0
52 3 3 0.033922 1.85051 7.94186 0.355757 0 0 0
53 3 3 0.033922 1.46232 9.19941 1.51548 0 0 0
54 3 3 0.033922 2.94085 8.21056 1.71995 0 0 0
55 4 1 -0.091211 10.1256 5.82909 3.96106 0 0 0
56 4 1 -0.050311 9.80693 4.37042 4.1122 0 0 0
57 4 2 -0.174311 9.65831 3.6331 2.811 0 0 0
58 4 2 -0.174311 8.87583 2.51897 2.67032 0 0 0
59 4 1 -0.050311 8.04181 1.81828 3.6817 0 0 0
60 4 1 -0.091211 6.97234 0.976093 3.05338 0 0 0
61 4 3 0.033922 9.28143 6.48446 4.19447 0 0 0
62 4 3 0.033922 10.401 5.99134 2.91492 0 0 0
63 4 3 0.033922 10.9704 6.10389 4.59937 0 0 0
64 4 3 0.046089 10.6315 3.86202 4.62044 0 0 0
65 4 3 0.046089 8.87036 4.23043 4.6598 0 0 0
66 4 4 0.121889 10.2143 4.02946 1.96735 0 0 0
67 4 4 0.121889 8.73618 2.07592 1.68944 0 0 0
68 4 3 0.046089 7.55498 2.58013 4.29745 0 0 0
69 4 3 0.046089 8.66439 1.27419 4.3979 0 0 0
70 4 3 0.033922 6.34814 0.660173 3.8943 0 0 0
71 4 3 0.033922 6.40701 1.5662 2.32622 0 0 0
72 4 3 0.033922 7.46288 0.191168 2.47043 0 0 0
73 5 1 -0.091211 36.5619 4.3766 4.52651 -1 0 0
74 5 1 -0.050311 36.4228 5.73415 5.26975 -1 0 0
75 5 2 -0.174311 36.0381 6.82493 4.39503 -1 0 0
76 5 2 -0.174311 36.6211 8.02187 4.27781 -1 0 0
77 5 1 -0.050311 37.8993 8.40812 4.96755 -1 0 0
78 5 1 -0.091211 38.4273 9.66554 4.24271 -1 0 0
79 5 3 0.033922 35.6067 4.04922 4.10564 -1 0 0
80 5 3 0.033922 36.8222 3.62748 5.27989 -1 0 0
81 5 3 0.033922 37.2802 4.4291 3.70322 -1 0 0
82 5 3 0.046089 35.6582 5.70938 6.05166 -1 0 0
83 5 3 0.046089 37.3904 5.94199 5.73565 -1 0 0
84 5 4 0.121889 35.2691 6.63128 3.65406 -1 0 0
85 5 4 0.121889 36.1626 8.74138 3.60696 -1 0 0
86 5 3 0.046089 38.6207 7.58859 4.89953 -1 0 0
87 5 3 0.046089 37.7614 8.63261 6.02921 -1 0 0
88 5 3 0.033922 39.4148 9.94101 4.62424 -1 0 0
89 5 3 0.033922 38.4605 9.57477 3.15313 -1 0 0
90 5 3 0.033922 37.7906 10.529 4.4562 -1 0 0
91 6 1 -0.091211 12.5068 8.49862 1.18612 0 0 1
92 6 1 -0.050311 11.5981 8.21591 -0.00449157 0 0 1
93 6 2 -0.174311 12.4818 8.08224 -1.1895 0 0 1
94 6 2 -0.174311 12.2949 7.22493 22.87 0 0 0
95 6 1 -0.050311 11.1918 6.27554 22.6553 0 0 0
96 6 1 -0.091211 10.305 6.67857 21.5015 0 0 0
97 6 3 0.033922 13.0836 7.59146 1.38839 0 0 1
98 6 3 0.033922 11.9031 8.68037 2.08008 0 0 1
99 6 3 0.033922 13.1684 9.35694 1.03725 0 0 1
100 6 3 0.046089 11.0675 7.28966 0.234463 0 0 1
101 6 3 0.046089 10.7754 8.91975 -0.160881 0 0 1
102 6 4 0.121889 13.3292 8.75496 -1.27561 0 0 1
103 6 4 0.121889 13.0626 7.27592 22.1045 0 0 0
104 6 3 0.046089 10.5827 6.09841 -1.53023 0 0 1
105 6 3 0.046089 11.5932 5.26924 22.5042 0 0 0
106 6 3 0.033922 9.42206 6.03837 21.417 0 0 0
107 6 3 0.033922 9.98053 7.71404 21.6395 0 0 0
108 6 3 0.033922 10.8193 6.74914 20.5386 0 0 0
109 7 1 -0.091211 33.2296 18.2338 6.4402 -1 0 0
110 7 1 -0.050311 34.3629 17.2614 6.34551 -1 0 0
111 7 2 -0.174311 34.5565 16.9533 4.87456 -1 0 0
112 7 2 -0.174311 34.872 15.7138 4.33777 -1 0 0
113 7 1 -0.050311 34.8213 14.4874 5.16207 -1 0 0
114 7 1 -0.091211 34.339 13.2714 4.42167 -1 0 0
115 7 3 0.033922 32.2699 17.7866 6.16531 -1 0 0
116 7 3 0.033922 33.4151 19.0339 5.7177 -1 0 0
117 7 3 0.033922 33.1652 18.7097 7.423 -1 0 0
118 7 3 0.046089 35.2796 17.704 6.74612 -1 0 0
119 7 3 0.046089 33.9841 16.4107 6.91934 -1 0 0
120 7 4 0.121889 34.5777 17.8189 4.22018 -1 0 0
121 7 4 0.121889 35.1482 15.7267 3.28827 -1 0 0
122 7 3 0.046089 34.209 14.6015 6.06134 -1 0 0
123 7 3 0.046089 35.8352 14.2523 5.49884 -1 0 0
124 7 3 0.033922 34.6281 12.4156 5.03866 -1 0 0
125 7 3 0.033922 33.2723 13.3582 4.19482 -1 0 0
126 7 3 0.033922 34.8819 13.1031 3.48705 -1 0 0
127 8 1 -0.091211 2.3957 10.5643 9.51725 0 0 0
128 8 1 -0.050311 0.997203 10.9345 10.1033 0 0 0
129 8 2 -0.174311 0.55291 9.78157 10.9264 0 0 0
130 8 2 -0.174311 0.00460062 8.6464 10.2625 0 0 0
131 8 1 -0.050311 -0.359722 8.55705 8.8012 0 0 0
132 8 1 -0.091211 -0.538099 7.13083 8.2105 0 0 0
133 8 3 0.033922 2.77984 11.5821 9.40312 0 0 0
134 8 3 0.033922 2.46708 10.0694 8.54435 0 0 0
135 8 3 0.033922 2.89688 9.83721 10.1628 0 0 0
136 8 3 0.046089 1.12526 11.8148 10.7398 0 0 0
137 8 3 0.046089 0.22856 11.2181 9.37848 0 0 0
138 8 4 0.121889 0.605347 9.71141 12.0081 0 0 0
139 8 4 0.121889 -0.300726 7.81536 10.8903 0 0 0
140 8 3 0.046089 0.408625 9.08713 8.23089 0 0 0
141 8 3 0.046089 39.1312 9.18629 8.58751 -1 0 0
142 8 3 0.033922 -0.141951 7.20143 7.19333 0 0 0
143 8 3 0.033922 -0.0260275 6.34545 8.774 0 0 0
144 8 3 0.033922 38.7556 6.90977 8.10511 -1 0 0
145 9 1 -0.091211 2.28789 8.3582 14.0219 0 0 0
146 9 1 -0.050311 2.73907 8.06662 15.4389 0 0 0
147 9 2 -0.174311 3.89198 8.96362 15.7212 0 0 0
148 9 2 -0.174311 4.88489 8.65465 16.6566 0 0 0
149 9 1 -0.050311 4.78854 7.70765 17.7737 0 0 0
150 9 1 -0.091211 4.59161 8.33783 19.1751 0 0 0
151 9 3 0.033922 1.87028 9.36922 14.0219 0 0 0
152 9 3 0.033922 1.48612 7.72127 13.637 0 0 0
153 9 3 0.033922 3.10522 8.40368 13.2963 0 0 0
154 9 3 0.046089 1.88908 8.22653 16.1086 0 0 0
155 9 3 0.046089 3.06451 7.02332 15.3922 0 0 0
156 9 4 0.121889 4.23189 9.70229 15.0023 0 0 0
157 9 4 0.121889 5.78825 9.23572 16.5006 0 0 0
158 9 3 0.046089 5.75567 7.19934 17.7197 0 0 0
159 9 3 0.046089 4.01712 6.95601 17.5826 0 0 0
160 9 3 0.033922 4.8772 7.68243 20.003 0 0 0
161 9 3 0.033922 5.13235 9.28074 19.298 0 0 0
162 9 3 0.033922 3.5311 8.55611 19.3311 0 0 0
163 10 1 -0.091211 -0.521269 11.4216 1.55564 0 0 1
164 10 1 -0.050311 0.875918 11.9799 1.31335 0 0 1
165 10 2 -0.174311 1.82219 11.6246 2.34664 0 0 1
166 10 2 -0.174311 3.11648 11.9442 2.18633 0 0 1
167 10 1 -0.050311 3.7737 12.6664 0.967869 0 0 1
168 10 1 -0.091211 5.01176 13.4057 1.41186 0 0 1
169 10 3 0.033922 -0.475158 10.3288 1.56827 0 0 1
170 10 3 0.033922 39.3126 11.7269 0.646379 -1 0 1
171 10 3 0.033922 39.4653 11.7044 2.54419 -1 0 1
172 10 3 0.046089 1.30933 11.596 0.385251 0 0 1
173 10 3 0.046089 0.789959 13.0697 1.27621 0 0 1
174 10 4 0.121889 1.61461 10.948 3.16945 0 0 1
175 10 4 0.121889 3.75487 11.4787 2.93047 0 0 1
176 10 3 0.046089 3.09969 13.356 0.451476 0 0 1
177 10 3 0.046089 4.07335 11.9092 0.237499 0 0 1
178 10 3 0.033922 5.61603 12.6714 1.95243 0 0 1
179 10 3 0.033922 5.5294 13.8362 0.549702 0 0 1
180 10 3 0.033922 4.73015 14.2236 2.08141 0 0 1
181 11 1 -0.091211 37.5247 12.7194 22.3911 -1 0 -1
182 11 1 -0.050311 38.857 13.3419 22.7335 -1 0 -1
183 11 2 -0.174311 38.7903 14.4708 -1.34575 -1 0 0
184 11 2 -0.174311 -0.408961 15.0578 -0.913952 0 0 0
185 11 1 -0.050311 0.962171 14.6108 -1.43264 0 0 0
186 11 1 -0.091211 2.09723 15.5226 -1.12384 0 0 0
187 11 3 0.033922 37.0363 12.341 -1.78295 -1 0 0
188 11 3 0.033922 37.5091 11.884 21.6851 -1 0 -1
189 11 3 0.033922 36.8955 13.5296 22.0113 -1 0 -1
190 11 3 0.046089 -0.904252 12.5734 23.2313 0 0 -1
191 11 3 0.046089 39.3414 13.7191 21.8282 -1 0 -1
192 11 4 0.121889 37.8257 14.8693 -1.04798 -1 0 0
193 11 4 0.121889 -0.515404 15.877 -0.210015 0 0 0
194 11 3 0.046089 0.924393 14.3875 22.5739 0 0 -1
195 11 3 0.046089 1.13634 13.6366 -0.966804 0 0 0
196 11 3 0.033922 2.98984 15.2398 -1.68942 0 0 0
197 11 3 0.033922 1.82662 16.5037 -1.52499 0 0 0
198 11 3 0.033922 2.28707 15.5585 -0.0471681 0 0 0
199 12 1 -0.091211 -0.176521 16.9145 6.90957 0 0 0
200 12 1 -0.050311 0.24582 15.8514 5.91126 0 0 0
201 12 2 -0.174311 0.050197 16.4006 4.52652 0 0 0
202 12 2 -0.174311 0.974044 16.9323 3.71643 0 0 0
203 12 1 -0.050311 2.38457 16.9045 4.11648 0 0 0
204 12 1 -0.091211 3.22744 17.5083 2.99477 0 0 0
205 12 3 0.033922 0.393723 17.8467 6.86059 0 0 0
206 12 3 0.033922 -0.0267497 16.4415 7.88444 0 0 0
207 12 3 0.033922 39.1353 17.0821 6.64466 -1 0 0
208 12 3 0.046089 1.27117 15.5875 6.18627 0 0 0
209 12 3 0.046089 -0.398973 14.9728 6.00486 0 0 0
210 12 4 0.121889 39.3575 16.3721 4.26299 -1 0 0
211 12 4 0.121889 0.768232 17.3154 2.72204 0 0 0
212 12 3 0.046089 2.70865 15.8646 4.21641 0 0 0
213 12 3 0.046089 2.6162 17.3804 5.07382 0 0 0
214 12 3 0.033922 2.95521 17.1152 2.01096 0 0 0
215 12 3 0.033922 2.91934 18.5579 2.99607 0 0 0
216 12 3 0.033922 4.30175 17.4468 3.19155 0 0 0
217 13 1 -0.091211 8.13502 9.88554 5.73197 0 0 0
218 13 1 -0.050311 6.58673 10.0773 5.67574 0 0 0
219 13 2 -0.174311 6.24619 11.5592 5.27159 0 0 0
220 13 2 -0.174311 5.03416 12.1854 5.55052 0 0 0
221 13 1 -0.050311 3.85909 11.444 6.12409 0 0 0
222 13 1 -0.091211 2.58803 12.319 6.41727 0 0 0
223 13 3 0.033922 8.62588 10.1139 4.78146 0 0 0
224 13 3 0.033922 8.41638 8.87133 6.02991 0 0 0
225 13 3 0.033922 8.50146 10.4594 6.5881 0 0 0
226 13 3 0.046089 6.07433 9.45526 4.9361 0 0 0
227 13 3 0.046089 6.21479 9.90825 6.69045 0 0 0
228 13 4 0.121889 6.94913 12.0774 4.62712 0 0 0
229 13 4 0.121889 4.96621 13.2209 5.23258 0 0 0
230 13 3 0.046089 4.21938 11.0419 7.0754 0 0 0
231 13 3 0.046089 3.51808 10.6403 5.46516 0 0 0
232 13 3 0.033922 2.77199 13.1283 7.12986 0 0 0
233 13 3 0.033922 2.31929 12.7606 5.45325 0 0 0
234 13 3 0.033922 1.75942 11.7461 6.84373 0 0 0
235 14 1 -0.091211 8.85904 12.0272 17.0636 0 0 0
236 14 1 -0.050311 7.7865 11.9564 15.9416 0 0 0
237 14 2 -0.174311 7.81034 13.2395 15.1682 0 0 0
238 14 2 -0.174311 6.95723 13.4523 14.1102 0 0 0
239 14 1 -0.050311 6.13086 12.3844 13.4153 0 0 0
240 14 1 -0.091211 4.70414 12.3123 13.8979 0 0 0
241 14 3 0.033922 8.77095 12.8886 17.732 0 0 0
242 14 3 0.033922 9.90912 12.0432 16.7575 0 0 0
243 14 3 0.033922 8.81294 11.1171 17.6688 0 0 0
244 14 3 0.046089 7.97588 11.0559 15.3501 0 0 0
245 14 3 0.046089 6.78687 11.8101 16.3611 0 0 0
246 14 4 0.121889 8.30041 14.136 15.5345 0 0 0
247 14 4 0.121889 7.03783 14.4408 13.6694 0 0 0
248 14 3 0.046089 6.55264 11.3891 13.5827 0 0 0
249 14 3 0.046089 6.16865 12.5147 12.3299 0 0 0
250 14 3 0.033922 4.1718 11.5713 13.2945 0 0 0
251 14 3 0.033922 4.75488 12.03 14.9535 0 0 0
252 14 3 0.033922 4.28914 13.3175 13.78 0 0 0
253 15 1 -0.091211 3.5117 18.9895 22.6411 0 0 0
254 15 1 -0.050311 4.58146 18.1176 22.0354 0 0 0
255 15 2 -0.174311 5.88567 18.7607 21.727 0 0 0
256 15 2 -0.174311 6.35755 18.7343 20.4182 0 0 0
257 15 1 -0.050311 5.68394 18.072 19.2613 0 0 0
258 15 1 -0.091211 6.81665 17.717 18.2952 0 0 0
259 15 3 0.033922 3.97118 19.5663 -1.62771 0 0 1
260 15 3 0.033922 2.67942 18.4167 -2.01636 0 0 1
261 15 3 0.033922 3.11798 19.6784 21.8881 0 0 0
262 15 3 0.046089 4.79107 17.2908 22.7203 0 0 0
263 15 3 0.046089 4.09189 17.6231 21.1913 0 0 0
264 15 4 0.121889 6.34237 19.2442 22.5846 0 0 0
265 15 4 0.121889 7.25319 19.3054 20.1952 0 0 0
266 15 3 0.046089 4.98364 18.7688 18.7917 0 0 0
267 15 3 0.046089 5.09445 17.2159 19.6022 0 0 0
268 15 3 0.033922 7.21926 18.6196 17.8264 0 0 0
269 15 3 0.033922 7.62257 17.1249 18.7386 0 0 0
270 15 3 0.033922 6.42204 17.1356 17.4568 0 0 0
271 16 1 -0.091211 10.081 18.3144 3.72152 0 0 0
272 16 1 -0.050311 10.4103 19.7944 3.87999 0 0 0
273 16 2 -0.174311 11.7406 20.0262 3.34239 0 0 0
274 16 2 -0.174311 12.0528 20.9991 2.43968 0 0 0
275 16 1 -0.050311 11.1048 -0.434796 1.92377 0 1 0
276 16 1 -0.091211 11.8834 0.623375 1.17062 0 1 0
277 16 3 0.033922 9.7738 18.0443 2.70703 0 0 0
278 16 3 0.033922 9.31711 18.0484 4.45791 0 0 0
279 16 3 0.033922 10.9383 17.6718 3.94194 0 0 0
280 16 3 0.046089 9.67492 20.4953 3.4744 0 0 0
281 16 3 0.046089 10.4565 20.0325 4.94661 0 0 0
282 16 4 0.121889 12.5454 19.3872 3.69153 0 0 0
283 16 4 0.121889 13.0835 21.0272 2.10067 0 0 0
284 16 3 0.046089 10.693 0.0201469 2.8293 0 1 0
285 16 3 0.046089 10.2973 21.7091 1.27516 0 0 0
286 16 3 0.033922 11.1902 1.38422 0.800363 0 1 0
287 16 3 0.033922 12.6742 1.08757 1.76718 0 1 0
288 16 3 0.033922 12.2976 0.220909 0.24163 0 1 0
289 17 1 -0.091211 9.21773 17.4666 9.05175 0 0 0
290 17 1 -0.050311 8.03411 18.3649 8.72837 0 0 0
291 17 2 -0.174311 7.63633 18.1946 7.29537 0 0 0
292 17 2 -0.174311 7.5011 19.1956 6.37428 0 0 0
293 17 1 -0.050311 7.74976 20.6568 6.57971 0 0 0
294 17 1 -0.091211 6.51393 21.3419 7.04151 0 0 0
295 17 3 0.033922 8.98266 16.4019 9.13844 0 0 0
296 17 3 0.033922 9.59966 17.718 10.0455 0 0 0
297 17 3 0.033922 10.071 17.6083 8.38206 0 0 0
298 17 3 0.046089 7.17779 18.1019 9.35619 0 0 0
299 17 3 0.046089 8.32035 19.3868 8.99354 0 0 0
300 17 4 0.121889 7.4536 17.2063 6.88575 0 0 0
301 17 4 0.121889 7.19311 19.0079 5.35063 0 0 0
302 17 3 0.046089 8.02084 21.1329 5.63292 0 0 0
303 17 3 0.046089 8.48724 20.8408 7.36638 0 0 0
304 17 3 0.033922 6.61742 -0.0715787 7.16078 0 1 0
305 17 3 0.033922 5.75492 21.2045 6.26587 0 0 0
306 17 3 0.033922 6.1661 20.925 7.99113 0 0 0
307 18 1 -0.091211 1.19276 2.97087 21.3079 0 1 0
308 18 1 -0.050311 2.48155 2.52111 21.855 0 1 0
309 18 2 -0.174311 2.98153 3.42094 22.8955 0 1 0
310 18 2 -0.174311 2.67928 3.20962 -0.841883 0 1 1
311 18 1 -0.050311 1.66759 2.26382 -0.272835 0 1 1
312 18 1 -0.091211 0.979069 2.97458 0.909725 0 1 1
313 18 3 0.033922 1.33557 3.80801 20.6185 0 1 0
314 18 3 0.033922 0.573057 3.41321 22.0933 0 1 0
315 18 3 0.033922 0.649253 2.18856 20.7702 0 1 0
316 18 3 0.046089 2.41275 1.49619 22.2309 0 1 0
317 18 3 0.046089 3.24256 2.5435 21.0695 0 1 0
318 18 4 0.121889 3.68258 4.22131 22.6812 0 1 0
319 18 4 0.121889 3.12869 3.95045 -0.188307 0 1 1
320 18 3 0.046089 2.20314 1.36722 0.0525426 0 1 1
321 18 3 0.046089 0.9129 1.93435 -0.992895 0 1 1
322 18 3 0.033922 0.161273 2.3571 1.29252 0 1 1
323 18 3 0.033922 1.73523 3.20762 1.66505 0 1 1
324 18 3 0.033922 0.460029 3.8772 0.574383 0 1 1
325 19 1 -0.091211 16.2552 20.1866 1.77558 0 -1 0
326 19 1 -0.050311 16.8531 21.3882 1.05887 0 -1 0
327 19 2 -0.174311 16.0097 0.0719775 1.49376 0 0 0
328 19 2 -0.174311 16.3878 1.3766 1.37488 0 0 0
329 19 1 -0.050311 17.6776 1.80426 0.797803 0 0 0
330 19 1 -0.091211 17.3045 2.95087 -0.0801669 0 0 0
331 19 3 0.033922 16.1185 20.3886 2.84192 0 -1 0
332 19 3 0.033922 16.9366 19.3353 1.68866 0 -1 0
333 19 3 0.033922 15.2991 19.9366 1.3067 0 -1 0
334 19 3 0.046089 17.9295 21.5205 1.20204 0 -1 0
335 19 3 0.046089 16.6862 21.2886 -0.0175894 0 -1 0
336 19 4 0.121889 14.9814 -0.0769344 1.80742 0 0 0
337 19 4 0.121889 15.6241 2.12162 1.57403 0 0 0
338 19 3 0.046089 18.1187 0.976123 0.235507 0 0 0
339 19 3 0.046089 18.4346 2.14564 1.50981 0 0 0
340 19 3 0.033922 16.8482 3.80437 0.429623 0 0 0
341 19 3 0.033922 18.248 3.2837 -0.522396 0 0 0
342 19 3 0.033922 16.7181 2.58066 -0.926102 0 0 0
343 20 1 -0.091211 13.9357 2.21474 10.4679 0 0 0
344 20 1 -0.050311 14.0049 2.41529 8.95 0 0 0
345 20 2 -0.174311 13.3032 1.24212 8.23911 0 0 0
346 20 2 -0.174311 12.2161 1.39112 7.3791 0 0 0
347 20 1 -0.050311 11.4001 2.59625 7.19677 0 0 0
348 20 1 -0.091211 9.98107 2.21141 7.19647 0 0 0
349 20 3 0.033922 12.9674 2.54165 10.8582 0 0 0
350 20 3 0.033922 14.6382 2.85042 11.0147 0 0 0
351 20 3 0.033922 14.2816 1.19368 10.6531 0 0 0
352 20 3 0.046089 13.609 3.41578 8.75289 0 0 0
353 20 3 0.046089 15.0223 2.35622 8.55245 0 0 0
354 20 4 0.121889 13.7435 0.252414 8.3064 0 0 0
355 20 4 0.121889 11.9852 0.521982 6.77147 0 0 0
356 20 3 0.046089 11.7084 3.14191 6.30023 0 0 0
357 20 3 0.046089 11.5393 3.26157 8.05381 0 0 0
358 20 3 0.033922 9.26687 3.00039 6.94341 0 0 0
359 20 3 0.033922 9.77758 1.40723 6.48341 0 0 0
360 20 3 0.033922 9.77289 1.8803 8.21802 0 0 0
361 21 1 -0.091211 6.50668 3.55963 17.8013 0 0 0
362 21 1 -0.050311 6.15968 2.06953 17.7709 0 0 0
363 21 2 -0.174311 5.52313 1.55474 19.0271 0 0 0
364 21 2 -0.174311 5.24836 0.252741 19.2892 0 0 0
365 21 1 -0.050311 5.44416 21.638 18.2057 0 -1 0
366 21 1 -0.091211 4.08941 20.9907 17.7904 0 -1 0
367 21 3 0.033922 5.9887 4.10453 18.5959 0 0 0
368 21 3 0.033922 6.12579 4.06884 16.9113 0 0 0
369 21 3 0.033922 7.55295 3.8436 17.9473 0 0 0
370 21 3 0.046089 5.48022 1.88749 16.9332 0 0 0
371 21 3 0.046089 7.07072 1.51155 17.5358 0 0 0
372 21 4 0.121889 5.22863 2.33713 19.7192 0 0 0
373 21 4 0.121889 4.84842 -0.0727953 20.2442 0 0 0
374 21 3 0.046089 6.15146 20.9154 18.6232 0 -1 0
375 21 3 0.046089 5.85984 22.0999 17.3055 0 -1 0
376 21 3 0.033922 4.21889 20.5479 16.7985 0 -1 0
377 21 3 0.033922 3.6213 20.3068 18.5043 0 -1 0
378 21 3 0.033922 3.38372 21.8118 17.6341 0 -1 0
379 22 1 -0.091211 12.142 20.2686 -2.02099 0 -1 1
380 22 1 -0.050311 10.6694 20.5497 -1.66565 0 -1 1
381 22 2 -0.174311 10.0588 21.1871 22.1725 0 -1 0
382 22 2 -0.174311 8.88317 -0.487663 22.1866 0 0 0
383 22 1 -0.050311 8.11273 -0.188602 -1.63037 0 0 1
384 22 1 -0.091211 7.63984 1.25895 -1.61222 0 0 1
385 22 3 0.033922 12.135 19.6216 22.1738 0 -1 0
386 22 3 0.033922 12.6086 19.8082 -1.14526 0 -1 1
387 22 3 0.033922 12.5944 21.2027 22.71 0 -1 0
388 22 3 0.046089 10.1869 19.6309 -1.31987 0 -1 1
389 22 3 0.046089 10.7364 21.3168 -0.888663 0 -1 1
390 22 4 0.121889 10.4739 20.9642 21.1948 0 -1 0
391 22 4 0.121889 8.49573 -0.10557 21.2476 0 0 0
392 22 3 0.046089 8.69395 -0.311819 -0.711904 0 0 1
393 22 3 0.046089 7.25686 21.6265 -1.60474 0 -1 1
394 22 3 0.033922 6.81769 1.342 -0.895445 0 0 1
395 22 3 0.033922 8.45408 1.96263 -1.41607 0 0 1
396 22 3 0.033922 7.23582 1.56849 22.4963 0 0 0
397 23 1 -0.091211 15.8251 5.12609 5.35709 0 0 0
398 23 1 -0.050311 15.7183 4.27078 4.10177 0 0 0
399 23 2 -0.174311 14.4721 3.43097 3.94954 0 0 0
400 23 2 -0.174311 13.4782 3.63773 2.98083 0 0 0
401 23 1 -0.050311 13.4236 4.76543 1.97436 0 0 0
402 23 1 -0.091211 13.3097 4.26445 0.517315 0 0 0
403 23 3 0.033922 14.973 5.81202 5.3597 0 0 0
404 23 3 0.033922 16.743 5.72117 5.34938 0 0 0
405 23 3 0.033922 15.8035 4.55198 6.28793 0 0 0
406 23 3 0.046089 15.7759 4.93373 3.2336 0 0 0
407 23 3 0.046089 16.5645 3.58572 3.99596 0 0 0
408 23 4 0.121889 14.4668 2.58204 4.62572 0 0 0
409 23 4 0.121889 12.6053 2.99408 3.02168 0 0 0
410 23 3 0.046089 14.2893 5.43125 1.91184 0 0 0
411 23 3 0.046089 12.5536 5.36292 2.26194 0 0 0
412 23 3 0.033922 14.1658 3.60562 0.344965 0 0 0
413 23 3 0.033922 12.4035 3.6916 0.300139 0 0 0
414 23 3 0.033922 13.3387 5.03867 -0.25489 0 0 0
415 24 1 -0.091211 8.81952 14.6508 1.35694 0 0 0
416 24 1 -0.050311 9.20061 13.3656 2.17645 0 0 0
417 24 2 -0.174311 8.66328 13.4951 3.56515 0 0 0
418 24 2 -0.174311 9.35379 13.3613 4.76631 0 0 0
419 24 1 -0.050311 10.7455 13.0241 5.05069 0 0 0
420 24 1 -0.091211 10.8459 12.8368 6.61208 0 0 0
421 24 3 0.033922 7.74086 14.7471 1.20243 0 0 0
422 24 3 0.033922 9.29637 14.7027 0.373845 0 0 0
423 24 3 0.033922 9.22697 15.4858 1.93421 0 0 0
424 24 3 0.046089 8.80444 12.4362 1.75721 0 0 0
425 24 3 0.046089 10.2801 13.1979 2.23256 0 0 0
426 24 4 0.121889 7.60543 13.738 3.56069 0 0 0
427 24 4 0.121889 8.62224 13.3499 5.56798 0 0 0
428 24 3 0.046089 11.4259 13.8504 4.82529 0 0 0
429 24 3 0.046089 10.9139 12.0327 4.62022 0 0 0
430 24 3 0.033922 10.1814 12.025 6.92173 0 0 0
431 24 3 0.033922 11.8995 12.6218 6.81309 0 0 0
432 24 3 0.033922 10.6598 13.7845 7.1257 0 0 0
433 25 1 -0.091211 7.48532 6.22465 6.8307 0 0 0
434 25 1 -0.050311 5.93659 6.06176 6.71846 0 0 0
435 25 2 -0.174311 5.26316 5.35794 7.92157 0 0 0
436 25 2 -0.174311 4.28749 4.41336 7.7945 0 0 0
437 25 1 -0.050311 3.61061 3.94355 6.49947 0 0 0
438 25 1 -0.091211 4.3584 2.83679 5.90204 0 0 0
439 25 3 0.033922 7.68212 6.82202 7.72567 0 0 0
440 25 3 0.033922 7.85265 6.7482 5.94328 0 0 0
441 25 3 0.033922 8.04014 5.29425 6.98269 0 0 0
442 25 3 0.046089 5.42772 6.99831 6.47249 0 0 0
443 25 3 0.046089 5.78002 5.5616 5.75831 0 0 0
444 25 4 0.121889 5.71498 5.62501 8.87156 0 0 0
445 25 4 0.121889 3.95257 3.8516 8.66064 0 0 0
446 25 3 0.046089 3.66589 4.77915 5.79572 0 0 0
447 25 3 0.046089 2.57588 3.60868 6.61716 0 0 0
448 25 3 0.033922 4.24192 1.94112 6.51909 0 0 0
449 25 3 0.033922 3.89974 2.53065 4.95733 0 0 0
450 25 3 0.033922 5.44051 2.99038 5.85629 0 0 0
451 26 1 -0.091211 1.50396 3.45819 12.7162 0 0 0
452 26 1 -0.050311 1.51313 1.94455 13.0408 0 0 0
453 26 2 -0.174311 0.403963 1.50376 14.0951 0 0 0
454 26 2 -0.174311 0.567177 1.37138 15.4685 0 0 0
455 26 1 -0.050311 1.83002 1.77676 16.1627 0 0 0
456 26 1 -0.091211 1.51186 1.93282 17.6241 0 0 0
457 26 3 0.033922 0.71777 3.72528 12.004 0 0 0
458 26 3 0.033922 2.42038 3.76621 12.2044 0 0 0
459 26 3 0.033922 1.37809 4.01262 13.6507 0 0 0
460 26 3 0.046089 1.36036 1.43798 12.0834 0 0 0
461 26 3 0.046089 2.52272 1.71837 13.3961 0 0 0
462 26 4 0.121889 -0.574657 1.14949 13.7872 0 0 0
463 26 4 0.121889 -0.318839 1.13947 16.0509 0 0 0
464 26 3 0.046089 2.30895 2.68882 15.7948 0 0 0
465 26 3 0.046089 2.53267 0.952311 16.0105 0 0 0
466 26 3 0.033922 2.3902 2.21172 18.2135 0 0 0
467 26 3 0.033922 0.775923 2.73962 17.6879 0 0 0
468 26 3 0.033922 1.15199 1.00505 18.0783 0 0 0
469 27 1 -0.091211 12.3563 11.2123 16.072 0 0 0
470 27 1 -0.050311 12.9566 10.2933 14.9717 0 0 0
471 27 2 -0.174311 14.077 10.9561 14.337 0 0 0
472 27 2 -0.174311 15.4126 10.8261 14.7505 0 0 0
473 27 1 -0.050311 15.8271 10.0706 16.032 0 0 0
474 27 1 -0.091211 17.1428 10.4328 16.6318 0 0 0
475 27 3 0.033922 11.5541 10.6181 16.5192 0 0 0
476 27 3 0.033922 11.9378 12.086 15.5641 0 0 0
477 27 3 0.033922 13.1888 11.4354 16.7456 0 0 0
478 27 3 0.046089 13.2527 9.34883 15.4373 0 0 0
479 27 3 0.046089 12.2507 10.174 14.1446 0 0 0
480 27 4 0.121889 13.8798 11.5837 13.4738 0 0 0
481 27 4 0.121889 16.1913 11.354 14.2094 0 0 0
482 27 3 0.046089 15.757 9.02932 15.7045 0 0 0
483 27 3 0.046089 14.9987 10.2369 16.7267 0 0 0
484 27 3 0.033922 16.9794 11.3665 17.1778 0 0 0
485 27 3 0.033922 17.4296 9.70539 17.3967 0 0 0
486 27 3 0.033922 17.9642 10.5238 15.9151 0 0 0
487 28 1 -0.091211 7.25744 10.1776 1.29145 0 0 0
488 28 1 -0.050311 7.87459 9.19883 0.213013 0 0 0
489 28 2 -0.174311 8.39088 7.95716 0.983465 0 0 0
490 28 2 -0.174311 7.78567 6.69607 0.940346 0 0 0
491 28 1 -0.050311 6.63699 6.10466 0.162424 0 0 0
492 28 1 -0.091211 6.92327 4.8377 -0.730109 0 0 0
493 28 3 0.033922 6.93991 11.1482 0.899567 0 0 0
494 28 3 0.033922 8.03748 10.4069 2.02326 0 0 0
495 28 3 0.033922 6.41009 9.65586 1.74577 0 0 0
496 28 3 0.046089 7.10647 8.92019 -0.514284 0 0 0
497 28 3 0.046089 8.70902 9.68558 -0.300217 0 0 0
498 28 4 0.121889 9.33093 8.11645 1.50207 0 0 0
499 28 4 0.121889 8.16473 5.85532 1.51254 0 0 0
500 28 3 0.046089 6.25329 6.88979 -0.495531 0 0 0
501 28 3 0.046089 5.80661 5.78723 0.799854 0 0 0
502 28 3 0.033922 6.04397 4.22798 -0.957457 0 0 0
503 28 3 0.033922 7.38869 5.06645 -1.69324 0 0 0
504 28 3 0.033922 7.52602 4.11284 -0.17527 0 0 0
505 29 1 -0.091211 8.14268 9.88209 10.0609 0 0 0
506 29 1 -0.050311 7.87979 9.54313 11.4876 0 0 0
507 29 2 -0.174311 9.09775 8.77055 12.0282 0 0 0
508 29 2 -0.174311 9.09756 8.10377 13.2346 0 0 0
509 29 1 -0.050311 7.87337 7.90433 14.0933 0 0 0
510 29 1 -0.091211 7.49313 6.44129 14.3314 0 0 0
511 29 3 0.033922 8.34539 8.9564 9.51447 0 0 0
512 29 3 0.033922 9.01376 10.5432 10.0885 0 0 0
513 29 3 0.033922 7.31589 10.4044 9.57072 0 0 0
514 29 3 0.046089 7.82945 10.442 12.1089 0 0 0
515 29 3 0.046089 6.89795 9.07639 11.6091 0 0 0
516 29 4 0.121889 10.0825 8.90767 11.5928 0 0 0
517 29 4 0.121889 10.0551 7.87456 13.6912 0 0 0
518 29 3 0.046089 7.01974 8.36111 13.5841 0 0 0
519 29 3 0.046089 8.04941 8.32845 15.0861 0 0 0
520 29 3 0.033922 8.45369 5.94067 14.4842 0 0 0
521 29 3 0.033922 6.6802 6.36884 15.0598 0 0 0
522 29 3 0.033922 7.12295 5.93629 13.4345 0 0 0
523 30 1 -0.091211 16.2399 8.84229 20.0447 0 0 0
524 30 1 -0.050311 15.1339 9.64864 20.5684 0 0 0
525 30 2 -0.174311 14.9387 10.9375 19.8573 0 0 0
526 30 2 -0.174311 13.999 11.871 20.0843 0 0 0
527 30 1 -0.050311 12.8362 11.7725 21.1021 0 0 0
528 30 1 -0.091211 11.4667 12.2741 20.5172 0 0 0
529 30 3 0.033922 15.9342 8.49465 19.0536 0 0 0
530 30 3 0.033922 16.47 8.09407 20.8087 0 0 0
531 30 3 0.033922 17.153 9.44418 20.0677 0 0 0
532 30 3 0.046089 14.1702 9.14217 20.4617 0 0 0
533 30 3 0.046089 15.3579 9.78957 21.6298 0 0 0
534 30 4 0.121889 15.7381 11.2171 19.1785 0 0 0
535 30 4 0.121889 14.0317 12.7835 19.4977 0 0 0
536 30 3 0.046089 13.1548 12.3993 21.9401 0 0 0
537 30 3 0.046089 12.8351 10.7844 21.5713 0 0 0
538 30 3 0.033922 11.0393 11.8185 19.6192 0 0 0
539 30 3 0.033922 10.7736 12.0657 21.3373 0 0 0
540 30 3 0.033922 11.4651 13.3666 20.4624 0 0 0
541 31 1 -0.091211 15.5504 20.0959 18.9472 0 0 0
542 31 1 -0.050311 16.0293 19.7086 17.5527 0 0 0
543 31 2 -0.174311 16.986 18.5744 17.5353 0 0 0
544 31 2 -0.174311 16.7574 17.3843 16.8981 0 0 0
545 31 1 -0.050311 15.6053 17.0459 16.0387 0 0 0
546 31 1 -0.091211 15.971 15.9395 15.0566 0 0 0
547 31 3 0.033922 16.3611 20.387 19.6214 0 0 0
548 31 3 0.033922 14.9537 19.3456 19.474 0 0 0
549 31 3 0.033922 14.8618 20.9286 18.7767 0 0 0
550 31 3 0.046089 15.0619 19.5025 17.0855 0 0 0
551 31 3 0.046089 16.4819 20.5003 16.9487 0 0 0
552 31 4 0.121889 17.8684 18.7774 18.1338 0 0 0
553 31 4 0.121889 17.3863 16.5139 17.0555 0 0 0
554 31 3 0.046089 15.2763 17.899 15.4383 0 0 0
555 31 3 0.046089 14.8024 16.6833 16.6872 0 0 0
556 31 3 0.033922 16.694 16.3843 14.3667 0 0 0
557 31 3 0.033922 16.4654 15.0907 15.5381 0 0 0
558 31 3 0.033922 15.2012 15.5561 14.3805 0 0 0
559 32 1 -0.091211 16.7327 15.3764 11.7685 0 0 0
560 32 1 -0.050311 18.0454 15.4415 10.9725 0 0 0
561 32 2 -0.174311 17.8761 15.9822 9.62131 0 0 0
562 32 2 -0.174311 18.2888 17.2731 9.32123 0 0 0
563 32 1 -0.050311 18.5152 18.3065 10.4038 0 0 0
564 32 1 -0.091211 18.2682 19.6885 9.86149 0 0 0
565 32 3 0.033922 16.0254 14.721 11.2521 0 0 0
566 32 3 0.033922 16.2892 16.3479 12.0057 0 0 0
567 32 3 0.033922 16.9999 14.9598 12.744 0 0 0
568 32 3 0.046089 18.775 15.9958 11.5701 0 0 0
569 32 3 0.046089 18.5512 14.4775 10.865 0 0 0
570 32 4 0.121889 17.6074 15.3149 8.80867 0 0 0
571 32 4 0.121889 18.3222 17.5078 8.26212 0 0 0
572 32 3 0.046089 19.5419 18.2639 10.7789 0 0 0
573 32 3 0.046089 17.8633 18.1745 11.2722 0 0 0
574 32 3 0.033922 18.91 20.4154 10.3677 0 0 0
575 32 3 0.033922 18.4612 19.6956 8.78482 0 0 0
576 32 3 0.033922 17.2212 19.975 9.9971 0 0 0
577 33 1 -0.091211 13.4428 18.9464 7.49171 0 0 0
578 33 1 -0.050311 12.4265 19.8999 8.07948 0 0 0
579 33 2 -0.174311 12.2751 19.7211 9.56484 0 0 0
580 33 2 -0.174311 11.4523 20.498 10.3377 0 0 0
581 33 1 -0.050311 10.5645 21.629 9.94715 0 0 0
582 33 1 -0.091211 9.28125 21.5701 10.8209 0 0 0
583 33 3 0.033922 13.1203 17.9316 7.74212 0 0 0
584 33 3 0.033922 14.4405 19.1556 7.88844 0 0 0
585 33 3 0.033922 13.5512 19.0947 6.4134 0 0 0
586 33 3 0.046089 12.6099 20.9552 7.85777 0 0 0
587 33 3 0.046089 11.4857 19.6235 7.59457 0 0 0
588 33 4 0.121889 13.0108 19.1702 10.1422 0 0 0
589 33 4 0.121889 11.5228 20.4081 11.417 0 0 0
590 33 3 0.046089 10.3337 21.6212 8.87794 0 0 0
591 33 3 0.046089 11.1462 0.0495833 10.0827 0 1 0
592 33 3 0.033922 9.57196 21.8034 11.8493 0 0 0
593 33 3 0.033922 8.53501 -0.197402 10.4905 0 1 0
594 33 3 0.033922 8.75215 20.6213 10.6927 0 0 0
595 34 1 -0.091211 20.0034 15.9856 14.3708 0 0 0
596 34 1 -0.050311 20.0226 15.354 15.8538 0 0 0
597 34 2 -0.174311 20.0715 16.5332 16.8556 0 0 0
598 34 2 -0.174311 20.8661 16.686 17.9832 0 0 0
599 34 1 -0.050311 21.8236 15.6365 18.4589 0 0 0
600 34 1 -0.091211 22.9653 16.2617 19.2211 0 0 0
601 34 3 0.033922 19.2418 16.7586 14.2324 0 0 0
602 34 3 0.033922 19.8366 15.2242 13.6033 0 0 0
603 34 3 0.033922 20.9741 16.4196 14.114 0 0 0
604 34 3 0.046089 19.2214 14.6253 16.0076 0 0 0
605 34 3 0.046089 20.8288 14.6147 15.8598 0 0 0
606 34 4 0.121889 19.5951 17.4387 16.4937 0 0 0
607 34 4 0.121889 21.097 17.6337 18.459 0 0 0
608 34 3 0.046089 22.3393 15.15 17.6258 0 0 0
609 34 3 0.046089 21.4393 14.8716 19.1399 0 0 0
610 34 3 0.033922 22.5123 16.9755 19.9152 0 0 0
611 34 3 0.033922 23.5672 15.4869 19.7047 0 0 0
612 34 3 0.033922 23.6557 16.8674 18.6269 0 0 0
613 35 1 -0.091211 8.09052 11.8228 21.8782 0 0 0
614 35 1 -0.050311 6.6468 11.4997 22.086 0 0 0
615 35 2 -0.174311 5.86057 12.8186 22.3204 0 0 0
616 35 2 -0.174311 5.37775 13.6128 21.2606 0 0 0
617 35 1 -0.050311 5.60963 13.5192 19.7769 0 0 0
618 35 1 -0.091211 4.49547 12.7889 18.9766 0 0 0