ITEM: TIMESTEP
76800
ITEM: NUMBER OF ATOMS
1800
ITEM: BOX BOUNDS pp pp pp
-4.4328712214610206e+00 4.3240886721460221e+01
1.1441960904892721e+00 2.0464459409511043e+01
-4.4065263888482242e-01 2.1694386138884287e+01
ITEM: ATOMS id mol type q x y z ix iy iz
1 1 1 -0.091211 3.27345 10.1486 17.6759 0 -1 0
2 1 1 -0.050311 2.90542 10.8047 16.3796 0 -1 0
3 1 2 -0.174311 2.2574 9.8392 15.4132 0 -1 0
4 1 2 -0.174311 2.97384 9.09626 14.4901 0 -1 0
5 1 1 -0.050311 4.41839 9.16583 14.2263 0 -1 0
6 1 1 -0.091211 4.60801 10.0298 12.9711 0 -1 0
7 1 3 0.033922 2.39125 9.79765 18.2192 0 -1 0
8 1 3 0.033922 3.85433 10.8749 18.2518 0 -1 0
9 1 3 0.033922 3.86427 9.24044 17.5248 0 -1 0
10 1 3 0.046089 2.22106 11.6376 16.566 0 -1 0
11 1 3 0.046089 3.83749 11.2231 15.9886 0 -1 0
12 1 4 0.121889 1.22627 9.53644 15.5654 0 -1 0
13 1 4 0.121889 2.4635 8.36408 13.8724 0 -1 0
14 1 3 0.046089 4.82976 8.18247 13.9805 0 -1 0
15 1 3 0.046089 4.97481 9.5873 15.0685 0 -1 0
16 1 3 0.033922 5.679 10.2487 12.9293 0 -1 0
17 1 3 0.033922 4.27168 9.49714 12.0768 0 -1 0
18 1 3 0.033922 4.067 10.9698 13.1137 0 -1 0
19 2 1 -0.091211 4.85515 6.47205 11.1681 0 0 0
20 2 1 -0.050311 6.31915 6.79261 10.8488 0 0 0
21 2 2 -0.174311 6.84743 6.19961 9.57369 0 0 0
22 2 2 -0.174311 8.17823 6.15058 9.17959 0 0 0
23 2 1 -0.050311 9.28013 6.69308 10.0354 0 0 0
24 2 1 -0.091211 10.6871 6.58438 9.30803 0 0 0
25 2 3 0.033922 4.63106 5.40218 11.1254 0 0 0
26 2 3 0.033922 4.11715 7.05167 10.6059 0 0 0
27 2 3 0.033922 4.68804 6.67377 12.2302 0 0 0
28 2 3 0.046089 6.32314 7.88523 10.7957 0 0 0
29 2 3 0.046089 6.8786 6.49917 11.7418 0 0 0
30 2 4 0.121889 6.13361 5.70955 8.91919 0 0 0
31 2 4 0.121889 8.36444 5.67875 8.22005 0 0 0
32 2 3 0.046089 9.34972 6.20836 11.0136 0 0 0
33 2 3 0.046089 8.9915 7.74294 10.1409 0 0 0
34 2 3 0.033922 11.3992 7.18805 9.87827 0 0 0
35 2 3 0.033922 11.0753 5.56202 9.28211 0 0 0
36 2 3 0.033922 10.6124 7.08713 8.33937 0 0 0
37 3 1 -0.091211 -0.996803 1.34766 10.4762 0 0 0
38 3 1 -0.050311 0.0697453 1.98797 9.5673 0 0 0
39 3 2 -0.174311 1.14865 20.2627 9.34155 0 -1 0
40 3 2 -0.174311 2.37875 20.1498 9.88012 0 -1 0
41 3 1 -0.050311 3.0573 1.78662 10.7836 0 0 0
42 3 1 -0.091211 4.35549 2.25327 10.2245 0 0 0
43 3 3 0.033922 -1.31487 19.7183 10.036 0 -1 0
44 3 3 0.033922 -1.86395 2.00232 10.6034 0 0 0
45 3 3 0.033922 -0.559992 20.4748 11.4604 0 -1 0
46 3 3 0.046089 -0.313246 2.26898 8.58192 0 0 0
47 3 3 0.046089 0.481591 2.86803 10.0698 0 0 0
48 3 4 0.121889 0.938307 19.39 8.73139 0 -1 0
49 3 4 0.121889 2.98497 19.2962 9.59399 0 -1 0
50 3 3 0.046089 3.26919 1.26711 11.7227 0 0 0
51 3 3 0.046089 2.44176 2.67649 10.9446 0 0 0
52 3 3 0.033922 4.78461 2.94197 10.9581 0 0 0
53 3 3 0.033922 5.12037 1.48453 10.0808 0 0 0
54 3 3 0.033922 4.22446 2.84188 9.31183 0 0 0
55 4 1 -0.091211 -0.235478 16.1878 11.7415 0 -1 0
56 4 1 -0.050311 0.81667 17.2073 12.1669 0 -1 0
57 4 2 -0.174311 1.22827 16.8613 13.5441 0 -1 0
58 4 2 -0.174311 1.9077 17.768 14.363 0 -1 0
59 4 1 -0.050311 2.10599 19.1402 13.9651 0 -1 0
60 4 1 -0.091211 1.44438 19.979 15.0388 0 -1 0
61 4 3 0.033922 0.180323 15.1852 11.6055 0 -1 0
62 4 3 0.033922 -0.743992 16.5155 10.8301 0 -1 0
63 4 3 0.033922 -1.01598 16.2042 12.5078 0 -1 0
64 4 3 0.046089 1.717 17.2009 11.5456 0 -1 0
65 4 3 0.046089 0.325072 18.184 12.1348 0 -1 0
66 4 4 0.121889 1.23179 15.8316 13.8872 0 -1 0
67 4 4 0.121889 2.25125 17.4815 15.3519 0 -1 0
68 4 3 0.046089 1.68342 19.2845 12.9665 0 -1 0
69 4 3 0.046089 3.12918 19.5215 13.8991 0 -1 0
70 4 3 0.033922 2.02045 19.8995 15.9654 0 -1 0
71 4 3 0.033922 1.41599 1.68979 14.6744 0 0 0
72 4 3 0.033922 0.387788 19.7199 15.1537 0 -1 0
73 5 1 -0.091211 -3.56812 9.40417 8.20177 0 0 0
74 5 1 -0.050311 43.2711 8.32356 7.51796 -1 0 0
75 5 2 -0.174311 41.8209 8.50719 7.90068 -1 0 0
76 5 2 -0.174311 40.7559 8.17191 7.07291 -1 0 0
77 5 1 -0.050311 40.8083 7.27254 5.83386 -1 0 0
78 5 1 -0.091211 39.4366 7.34505 5.12348 -1 0 0
79 5 3 0.033922 -3.95809 10.3907 7.93451 0 0 0
80 5 3 0.033922 -2.49155 9.3573 8.01336 0 0 0
81 5 3 0.033922 -3.71112 9.31403 9.28253 0 0 0
82 5 3 0.046089 -4.29886 8.45975 6.43754 0 0 0
83 5 3 0.046089 -4.1614 7.28842 7.77669 0 0 0
84 5 4 0.121889 41.5818 9.10529 8.77425 -1 0 0
85 5 4 0.121889 39.7427 8.45219 7.34273 -1 0 0
86 5 3 0.046089 40.9578 6.23452 6.145 -1 0 0
87 5 3 0.046089 41.5982 7.57171 5.13873 -1 0 0
88 5 3 0.033922 39.164 8.36463 4.83577 -1 0 0
89 5 3 0.033922 39.5148 6.69428 4.24769 -1 0 0
90 5 3 0.033922 38.6023 7.01234 5.74788 -1 0 0
91 6 1 -0.091211 9.87491 1.30378 2.56364 0 0 1
92 6 1 -0.050311 8.89381 2.41517 2.23176 0 0 1
93 6 2 -0.174311 7.48597 1.87835 2.08187 0 0 1
94 6 2 -0.174311 7.00302 1.35571 0.914013 0 0 1
95 6 1 -0.050311 7.72415 1.43542 -0.377151 0 0 1
96 6 1 -0.091211 6.68222 1.46965 20.6265 0 0 0
97 6 3 0.033922 10.8602 1.74051 2.75121 0 0 1
98 6 3 0.033922 9.93431 19.9766 1.68394 0 -1 1
99 6 3 0.033922 9.54266 19.9582 3.36548 0 -1 1
100 6 3 0.046089 8.88117 3.16937 3.024 0 0 1
101 6 3 0.046089 9.23496 2.86267 1.29368 0 0 1
102 6 4 0.121889 6.8573 1.98513 2.96017 0 0 1
103 6 4 0.121889 5.97036 20.3633 1.03214 0 -1 1
104 6 3 0.046089 8.35063 19.8615 21.6901 0 -1 0
105 6 3 0.046089 8.3093 2.35247 -0.492434 0 0 1
106 6 3 0.033922 7.10852 1.66732 19.6386 0 0 0
107 6 3 0.033922 6.24182 19.7909 20.558 0 -1 0
108 6 3 0.033922 5.96423 2.26335 20.8527 0 0 0
109 7 1 -0.091211 33.5478 2.54791 0.0203618 -1 1 0
110 7 1 -0.050311 33.9378 2.41282 20.7235 -1 1 -1
111 7 2 -0.174311 34.2477 3.80186 20.2916 -1 1 -1
112 7 2 -0.174311 34.7539 4.05949 18.9895 -1 1 -1
113 7 1 -0.050311 34.9799 3.04681 17.8436 -1 1 -1
114 7 1 -0.091211 34.144 3.33122 16.5986 -1 1 -1
115 7 3 0.033922 32.5738 3.01263 0.199309 -1 1 0
116 7 3 0.033922 34.1991 3.08008 0.719791 -1 1 0
117 7 3 0.033922 33.3591 1.5507 0.428558 -1 1 0
118 7 3 0.046089 34.8005 1.75597 20.5788 -1 1 -1
119 7 3 0.046089 33.137 1.96524 20.1277 -1 1 -1
120 7 4 0.121889 34.0785 4.60797 20.9984 -1 1 -1
121 7 4 0.121889 34.9331 5.1 18.738 -1 1 -1
122 7 3 0.046089 34.6734 2.11978 18.3369 -1 1 -1
123 7 3 0.046089 36.048 2.96881 17.6207 -1 1 -1
124 7 3 0.033922 34.4702 4.25691 16.1156 -1 1 -1
125 7 3 0.033922 34.1119 2.485 15.9061 -1 1 -1
126 7 3 0.033922 33.1004 3.52009 16.8672 -1 1 -1
127 8 1 -0.091211 -2.20302 6.93525 0.214399 0 0 1
128 8 1 -0.050311 -2.90855 8.03565 0.836617 0 0 1
129 8 2 -0.174311 -4.31052 7.63054 1.14608 0 0 1
130 8 2 -0.174311 42.5467 8.36182 1.94243 -1 0 1
131 8 1 -0.050311 42.8726 9.71571 2.51205 -1 0 1
132 8 1 -0.091211 41.6097 10.2371 3.22641 -1 0 1
133 8 3 0.033922 -2.56581 6.94626 21.3175 0 0 0
134 8 3 0.033922 -2.36501 5.94482 0.649648 0 0 1
135 8 3 0.033922 -1.13164 7.15583 0.200572 0 0 1
136 8 3 0.046089 -2.41046 8.21009 1.7948 0 0 1
137 8 3 0.046089 -2.83586 8.8901 0.157453 0 0 1
138 8 4 0.121889 43.0745 6.64815 0.786143 -1 0 1
139 8 4 0.121889 41.5671 7.92955 2.12063 -1 0 1
140 8 3 0.046089 43.0956 10.4364 1.71986 -1 0 1
141 8 3 0.046089 -3.99036 9.6242 3.24072 0 0 1
142 8 3 0.033922 41.726 11.2585 3.60044 -1 0 1
143 8 3 0.033922 40.7194 10.1981 2.59202 -1 0 1
144 8 3 0.033922 41.4171 9.66693 4.13986 -1 0 1
145 9 1 -0.091211 35.3704 7.51259 20.8408 -1 1 0
146 9 1 -0.050311 36.3784 6.81185 21.7539 -1 1 0
147 9 2 -0.174311 35.6902 6.17603 0.851295 -1 1 1
148 9 2 -0.174311 36.3358 5.12758 1.485 -1 1 1
149 9 1 -0.050311 37.5517 4.26204 0.936658 -1 1 1
150 9 1 -0.091211 37.9475 3.3239 2.01668 -1 1 1
151 9 3 0.033922 34.6601 6.71148 20.6165 -1 1 0
152 9 3 0.033922 35.9019 7.78983 19.9257 -1 1 0
153 9 3 0.033922 34.7985 8.3248 21.2989 -1 1 0
154 9 3 0.046089 37.0302 6.08374 21.2624 -1 1 0
155 9 3 0.046089 37.0949 7.57402 -0.0611578 -1 1 1
156 9 4 0.121889 34.7731 6.66702 1.16109 -1 1 1
157 9 4 0.121889 35.9635 4.82333 2.45806 -1 1 1
158 9 3 0.046089 38.4492 4.81497 0.644617 -1 1 1
159 9 3 0.046089 37.2283 3.74206 0.0301821 -1 1 1
160 9 3 0.033922 37.0488 2.75263 2.26718 -1 1 1
161 9 3 0.033922 38.8529 2.76119 1.77105 -1 1 1
162 9 3 0.033922 38.1182 3.88283 2.94139 -1 1 1
163 10 1 -0.091211 5.3967 11.0481 8.64178 0 0 1
164 10 1 -0.050311 6.60833 11.1155 9.58073 0 0 1
165 10 2 -0.174311 7.67584 11.9757 8.88676 0 0 1
166 10 2 -0.174311 8.78257 11.5194 8.12549 0 0 1
167 10 1 -0.050311 9.08664 10.0931 7.88239 0 0 1
168 10 1 -0.091211 9.88333 9.89342 6.592 0 0 1
169 10 3 0.033922 5.01791 12.0572 8.45499 0 0 1
170 10 3 0.033922 4.6604 10.303 8.95696 0 0 1
171 10 3 0.033922 5.81985 10.6837 7.70118 0 0 1
172 10 3 0.046089 6.40101 11.5839 10.5473 0 0 1
173 10 3 0.046089 7.06667 10.1523 9.82315 0 0 1
174 10 4 0.121889 7.5512 13.0539 8.89247 0 0 1
175 10 4 0.121889 9.46281 12.2996 7.79895 0 0 1
176 10 3 0.046089 8.21859 9.42745 7.88903 0 0 1
177 10 3 0.046089 9.65008 9.7569 8.75767 0 0 1
178 10 3 0.033922 9.1809 10.0222 5.76335 0 0 1
179 10 3 0.033922 10.7155 10.6026 6.556 0 0 1
180 10 3 0.033922 10.2103 8.84993 6.56262 0 0 1
181 11 1 -0.091211 -0.300178 12.6173 13.4991 0 0 0
182 11 1 -0.050311 -0.613568 11.9006 14.771 0 0 0
183 11 2 -0.174311 -1.82917 12.6079 15.4198 0 0 0
184 11 2 -0.174311 -1.69311 13.7033 16.2685 0 0 0
185 11 1 -0.050311 -0.413209 14.4009 16.6161 0 0 0
186 11 1 -0.091211 -0.503918 15.9528 16.5278 0 0 0
187 11 3 0.033922 -1.1031 12.6606 12.7574 0 0 0
188 11 3 0.033922 0.588125 12.0759 13.1608 0 0 0
189 11 3 0.033922 -0.0340764 13.6566 13.7128 0 0 0
190 11 3 0.046089 -0.880677 10.8494 14.6287 0 0 0
191 11 3 0.046089 0.19902 11.8287 15.4998 0 0 0
192 11 4 0.121889 -2.83835 12.2381 15.2686 0 0 0
193 11 4 0.121889 -2.55807 14.1557 16.7431 0 0 0
194 11 3 0.046089 0.424627 14.0267 16.0205 0 0 0
195 11 3 0.046089 -0.215504 14.1442 17.6609 0 0 0
196 11 3 0.033922 -1.16443 16.4662 17.2327 0 0 0
197 11 3 0.033922 0.481373 16.4127 16.6478 0 0 0
198 11 3 0.033922 -0.760789 16.1913 15.4916 0 0 0
199 12 1 -0.091211 0.42885 10.1215 10.7492 0 0 0
200 12 1 -0.050311 0.610796 8.83634 9.91057 0 0 0
201 12 2 -0.174311 0.693088 7.58735 10.7361 0 0 0
202 12 2 -0.174311 -0.0817808 6.46094 10.559 0 0 0
203 12 1 -0.050311 -1.10852 6.42396 9.48767 0 0 0
204 12 1 -0.091211 -1.82279 5.08015 9.33032 0 0 0
205 12 3 0.033922 0.141616 10.999 10.1626 0 0 0
206 12 3 0.033922 1.32077 10.2163 11.3754 0 0 0
207 12 3 0.033922 -0.48197 10.0982 11.3546 0 0 0
208 12 3 0.046089 -0.195729 8.7757 9.17402 0 0 0
209 12 3 0.046089 1.53151 8.95858 9.33263 0 0 0
210 12 4 0.121889 1.4641 7.51372 11.4965 0 0 0
211 12 4 0.121889 0.182414 5.70715 11.2939 0 0 0
212 12 3 0.046089 -0.694102 6.51565 8.47946 0 0 0
213 12 3 0.046089 -1.88263 7.19389 9.55573 0 0 0
214 12 3 0.033922 -1.23396 4.34526 8.77366 0 0 0
215 12 3 0.033922 -2.08961 4.68141 10.3134 0 0 0
216 12 3 0.033922 -2.77303 5.17267 8.79632 0 0 0
217 13 1 -0.091211 -3.69366 14.9586 5.40263 0 0 1
218 13 1 -0.050311 -2.34447 15.4848 5.82361 0 0 1
219 13 2 -0.174311 -1.52285 14.5008 6.64422 0 0 1
220 13 2 -0.174311 -0.440474 14.8012 7.48958 0 0 1
221 13 1 -0.050311 0.0579893 16.2035 7.74785 0 0 1
222 13 1 -0.091211 1.45048 16.1783 8.41517 0 0 1
223 13 3 0.033922 -3.64175 14.0341 4.82012 0 0 1
224 13 3 0.033922 -4.12989 15.8407 4.92487 0 0 1
225 13 3 0.033922 -4.28963 14.7858 6.30354 0 0 1
226 13 3 0.046089 -1.75125 15.7585 4.94621 0 0 1
227 13 3 0.046089 -2.46782 16.4227 6.37286 0 0 1
228 13 4 0.121889 -1.84888 13.473 6.52029 0 0 1
229 13 4 0.121889 0.0137982 13.9881 8.04685 0 0 1
230 13 3 0.046089 -0.59386 16.7311 8.45032 0 0 1
231 13 3 0.046089 0.0711711 16.7879 6.82319 0 0 1
232 13 3 0.033922 2.15443 15.7517 7.69464 0 0 1
233 13 3 0.033922 1.72101 17.202 8.68986 0 0 1
234 13 3 0.033922 1.36246 15.5977 9.3381 0 0 1
235 14 1 -0.091211 17.5518 7.02902 6.64011 0 0 0
236 14 1 -0.050311 16.3654 7.76996 7.24042 0 0 0
237 14 2 -0.174311 16.3894 7.86683 8.77118 0 0 0
238 14 2 -0.174311 15.2709 8.18274 9.43364 0 0 0
239 14 1 -0.050311 14.1005 8.89312 8.88227 0 0 0
240 14 1 -0.091211 13.6664 9.86764 9.86163 0 0 0
241 14 3 0.033922 17.4989 5.98555 6.96419 0 0 0
242 14 3 0.033922 18.5122 7.43313 6.97333 0 0 0
243 14 3 0.033922 17.534 7.1917 5.55852 0 0 0
244 14 3 0.046089 16.2786 8.79102 6.85761 0 0 0
245 14 3 0.046089 15.4709 7.28733 6.83597 0 0 0
246 14 4 0.121889 17.2337 7.43547 9.2995 0 0 0
247 14 4 0.121889 15.3853 8.07054 10.5071 0 0 0
248 14 3 0.046089 13.3001 8.15709 8.76319 0 0 0
249 14 3 0.046089 14.3477 9.4553 7.97701 0 0 0
250 14 3 0.033922 12.9421 10.4971 9.33638 0 0 0
251 14 3 0.033922 13.2862 9.3253 10.7322 0 0 0
252 14 3 0.033922 14.508 10.4778 10.2021 0 0 0
253 15 1 -0.091211 2.50937 2.77508 21.1951 0 1 0
254 15 1 -0.050311 2.01061 1.39784 20.8897 0 1 0
255 15 2 -0.174311 1.85634 20.0355 0.144468 0 0 1
256 15 2 -0.174311 2.47362 18.835 0.446287 0 0 1
257 15 1 -0.050311 3.20619 17.9995 21.6507 0 0 0
258 15 1 -0.091211 3.49025 16.6126 0.192469 0 0 1
259 15 3 0.033922 1.74525 3.39553 -0.462644 0 1 1
260 15 3 0.033922 2.80074 3.25882 20.2582 0 1 0
261 15 3 0.033922 3.40517 2.70487 21.819 0 1 0
262 15 3 0.046089 1.04931 1.42661 20.3685 0 1 0
263 15 3 0.046089 2.75352 20.1683 20.3046 0 0 0
264 15 4 0.121889 1.30351 1.26846 0.897032 0 1 1
265 15 4 0.121889 2.34058 18.6084 1.49937 0 0 1
266 15 3 0.046089 4.14581 18.4368 21.3007 0 0 0
267 15 3 0.046089 2.56376 17.7356 20.8055 0 0 0
268 15 3 0.033922 4.04992 16.5979 1.13225 0 0 1
269 15 3 0.033922 2.51902 16.1649 0.422665 0 0 1
270 15 3 0.033922 4.07846 15.9093 -0.404296 0 0 1
271 16 1 -0.091211 13.4345 5.25982 6.25094 0 1 0
272 16 1 -0.050311 13.6057 5.94152 4.92574 0 1 0
273 16 2 -0.174311 12.7265 7.17493 4.89439 0 1 0
274 16 2 -0.174311 11.4679 7.26736 4.22216 0 1 0
275 16 1 -0.050311 10.6465 6.10822 3.66365 0 1 0
276 16 1 -0.091211 10.2216 6.53107 2.20983 0 1 0
277 16 3 0.033922 12.4049 4.97442 6.48573 0 1 0
278 16 3 0.033922 13.7912 5.78048 7.14442 0 1 0
279 16 3 0.033922 14.0355 4.34784 6.18945 0 1 0
280 16 3 0.046089 14.616 6.31503 4.73503 0 1 0
281 16 3 0.046089 13.3576 5.17 4.19098 0 1 0
282 16 4 0.121889 13.0579 8.13355 5.28076 0 1 0
283 16 4 0.121889 11.0966 8.28618 4.17504 0 1 0
284 16 3 0.046089 9.78968 5.94303 4.32336 0 1 0
285 16 3 0.046089 11.2271 5.1816 3.69479 0 1 0
286 16 3 0.033922 11.0646 6.44128 1.51852 0 1 0
287 16 3 0.033922 9.44356 5.83159 1.89039 0 1 0
288 16 3 0.033922 9.86067 7.56278 2.25387 0 1 0
289 17 1 -0.091211 9.86032 12.3572 13.1823 0 0 0
290 17 1 -0.050311 8.99693 12.0737 14.4008 0 0 0
291 17 2 -0.174311 9.66124 11.1237 15.401 0 0 0
292 17 2 -0.174311 9.18455 10.8691 16.642 0 0 0
293 17 1 -0.050311 8.03623 11.5814 17.318 0 0 0
294 17 1 -0.091211 7.21346 10.6506 18.2473 0 0 0
295 17 3 0.033922 9.46984 13.1973 12.6005 0 0 0
296 17 3 0.033922 10.076 11.5196 12.5126 0 0 0
297 17 3 0.033922 10.8536 12.6577 13.5283 0 0 0
298 17 3 0.046089 8.63846 12.9878 14.8832 0 0 0
299 17 3 0.046089 8.08553 11.5323 14.1309 0 0 0
300 17 4 0.121889 10.5986 10.6439 15.1378 0 0 0
301 17 4 0.121889 9.65141 10.0613 17.1965 0 0 0
302 17 3 0.046089 7.49087 12.0711 16.5059 0 0 0
303 17 3 0.046089 8.50418 12.3092 17.9873 0 0 0
304 17 3 0.033922 6.6765 9.85766 17.7185 0 0 0
305 17 3 0.033922 7.9728 10.2232 18.9086 0 0 0
306 17 3 0.033922 6.53853 11.2222 18.891 0 0 0
307 18 1 -0.091211 30.5209 4.68 15.0046 -1 0 1
308 18 1 -0.050311 31.1745 4.15745 13.8033 -1 0 1
309 18 2 -0.174311 32.3942 4.99718 13.4309 -1 0 1
310 18 2 -0.174311 32.8856 5.08735 12.1384 -1 0 1
311 18 1 -0.050311 32.3914 4.4414 10.8862 -1 0 1
312 18 1 -0.091211 33.405 4.69203 9.76699 -1 0 1
313 18 3 0.033922 29.6806 4.03781 15.2842 -1 0 1
314 18 3 0.033922 30.1931 5.70259 14.7961 -1 0 1
315 18 3 0.033922 31.1707 4.7033 15.8843 -1 0 1
316 18 3 0.046089 31.4476 3.12548 14.0423 -1 0 1
317 18 3 0.046089 30.3666 4.11585 13.067 -1 0 1
318 18 4 0.121889 32.9323 5.47408 14.244 -1 0 1
319 18 4 0.121889 33.699 5.78547 11.9678 -1 0 1
320 18 3 0.046089 31.4189 4.88423 10.6521 -1 0 1
321 18 3 0.046089 32.2133 3.36913 11.0094 -1 0 1
322 18 3 0.033922 33.4793 5.75632 9.52529 -1 0 1
323 18 3 0.033922 34.4057 4.36006 10.0588 -1 0 1
324 18 3 0.033922 33.0394 4.24595 8.83749 -1 0 1
325 19 1 -0.091211 12.4028 12.1465 2.83444 0 0 0
326 19 1 -0.050311 10.934 11.745 2.74102 0 0 0
327 19 2 -0.174311 10.798 10.54 1.80499 0 0 0
328 19 2 -0.174311 9.71064 10.3294 0.960752 0 0 0
329 19 1 -0.050311 8.41169 11.2218 0.895212 0 0 0
330 19 1 -0.091211 8.20076 11.6619 21.5701 0 0 -1
331 19 3 0.033922 12.5382 12.9437 3.5712 0 0 0
332 19 3 0.033922 12.7158 12.659 1.92008 0 0 0
333 19 3 0.033922 13.0251 11.284 3.09018 0 0 0
334 19 3 0.046089 10.56 11.478 3.73373 0 0 0
335 19 3 0.046089 10.3469 12.6207 2.44956 0 0 0
336 19 4 0.121889 11.5687 9.77596 1.78589 0 0 0
337 19 4 0.121889 9.73028 9.41024 0.383888 0 0 0
338 19 3 0.046089 8.46366 12.0836 1.56706 0 0 0
339 19 3 0.046089 7.54395 10.6365 1.21309 0 0 0
340 19 3 0.033922 7.99197 10.7785 20.9596 0 0 -1
341 19 3 0.033922 7.35406 12.3474 -0.664553 0 0 0
342 19 3 0.033922 9.09668 12.0163 21.052 0 0 -1
343 20 1 -0.091211 9.07334 1.16261 10.0754 0 0 0
344 20 1 -0.050311 9.71207 2.53415 9.76687 0 0 0
345 20 2 -0.174311 11.1485 2.47981 9.4944 0 0 0
346 20 2 -0.174311 11.7141 2.38633 8.2742 0 0 0
347 20 1 -0.050311 10.7878 2.38732 7.03424 0 0 0
348 20 1 -0.091211 11.6413 1.99957 5.83996 0 0 0
349 20 3 0.033922 9.49041 20.0577 10.9929 0 -1 0
350 20 3 0.033922 9.23934 19.7891 9.2461 0 -1 0
351 20 3 0.033922 7.98805 20.6086 10.1306 0 -1 0
352 20 3 0.046089 9.15103 2.92245 8.91182 0 0 0
353 20 3 0.046089 9.52 3.22209 10.5954 0 0 0
354 20 4 0.121889 11.7114 2.56445 10.4185 0 0 0
355 20 4 0.121889 12.7861 2.33065 8.11344 0 0 0
356 20 3 0.046089 10.3411 3.36196 6.81711 0 0 0
357 20 3 0.046089 10.0342 1.63881 7.29596 0 0 0
358 20 3 0.033922 12.2895 2.86119 5.65518 0 0 0
359 20 3 0.033922 12.2446 20.4641 6.15671 0 -1 0
360 20 3 0.033922 11.0449 1.8366 4.93754 0 0 0
361 21 1 -0.091211 -4.15704 2.92061 20.0937 0 0 0
362 21 1 -0.050311 -3.32995 1.72813 19.8336 0 0 0
363 21 2 -0.174311 -2.43382 1.36011 21.0166 0 0 0
364 21 2 -0.174311 -1.91637 19.4443 21.2788 0 -1 0
365 21 1 -0.050311 -1.87244 18.3608 20.2543 0 -1 0
366 21 1 -0.091211 -0.621242 17.3846 20.5287 0 -1 0
367 21 3 0.033922 42.8663 2.78679 20.963 -1 0 0
368 21 3 0.033922 43.0224 3.24499 19.1733 -1 0 0
369 21 3 0.033922 -3.43538 3.7285 20.2459 0 0 0
370 21 3 0.046089 -4.03141 20.2323 19.637 0 -1 0
371 21 3 0.046089 -2.66837 1.88035 18.9758 0 0 0
372 21 4 0.121889 -2.36957 2.12802 -0.354119 0 0 1
373 21 4 0.121889 -1.45411 19.1983 0.0944215 0 -1 1
374 21 3 0.046089 -1.83804 18.6682 19.205 0 -1 0
375 21 3 0.046089 -2.85581 17.8846 20.3081 0 -1 0
376 21 3 0.033922 -0.620004 16.9659 21.5393 0 -1 0
377 21 3 0.033922 -0.614059 16.5387 19.8352 0 -1 0
378 21 3 0.033922 0.259066 18.0057 20.3388 0 -1 0
379 22 1 -0.091211 6.54208 15.0582 15.2804 0 -1 0
380 22 1 -0.050311 5.40052 14.4702 16.1121 0 -1 0
381 22 2 -0.174311 5.70178 14.7179 17.6221 0 -1 0
382 22 2 -0.174311 4.83431 15.3683 18.4254 0 -1 0
383 22 1 -0.050311 3.49571 16.0395 18.002 0 -1 0
384 22 1 -0.091211 3.82536 17.4779 17.5531 0 -1 0
385 22 3 0.033922 6.38518 14.8284 14.2225 0 -1 0
386 22 3 0.033922 7.49137 14.6036 15.5786 0 -1 0
387 22 3 0.033922 6.54717 16.1496 15.3535 0 -1 0
388 22 3 0.046089 4.49436 14.947 15.727 0 -1 0
389 22 3 0.046089 5.29241 13.3964 15.9334 0 -1 0
390 22 4 0.121889 6.60894 14.3616 18.0998 0 -1 0
391 22 4 0.121889 5.03864 15.3836 19.4913 0 -1 0
392 22 3 0.046089 2.89044 16.1253 18.9091 0 -1 0
393 22 3 0.046089 2.94702 15.5595 17.1864 0 -1 0
394 22 3 0.033922 4.25943 18.1295 18.317 0 -1 0
395 22 3 0.033922 4.28096 17.5374 16.5603 0 -1 0
396 22 3 0.033922 2.85899 17.971 17.4128 0 -1 0
397 23 1 -0.091211 1.2937 7.48837 2.26314 0 0 0
398 23 1 -0.050311 2.2969 7.86699 3.33996 0 0 0
399 23 2 -0.174311 1.76655 7.72871 4.78809 0 0 0
400 23 2 -0.174311 1.8147 8.71947 5.70414 0 0 0
401 23 1 -0.050311 2.0489 10.1258 5.31708 0 0 0
402 23 1 -0.091211 1.44744 11.1276 6.35637 0 0 0
403 23 3 0.033922 1.79096 7.59599 1.29474 0 0 0
404 23 3 0.033922 0.383318 8.08635 2.16162 0 0 0
405 23 3 0.033922 1.026 6.45365 2.49627 0 0 0
406 23 3 0.046089 3.14991 7.18244 3.3188 0 0 0
407 23 3 0.046089 2.6111 8.90123 3.17181 0 0 0
408 23 4 0.121889 1.58234 6.74501 5.20813 0 0 0
409 23 4 0.121889 1.69035 8.39198 6.73141 0 0 0
410 23 3 0.046089 1.58871 10.3612 4.353 0 0 0
411 23 3 0.046089 3.11977 10.293 5.16884 0 0 0
412 23 3 0.033922 2.06442 11.255 7.25065 0 0 0
413 23 3 0.033922 1.27364 12.1404 5.98141 0 0 0
414 23 3 0.033922 0.490959 10.6619 6.61136 0 0 0
415 24 1 -0.091211 1.99807 15.0443 3.92175 0 0 0
416 24 1 -0.050311 2.99846 15.8931 4.69311 0 0 0
417 24 2 -0.174311 4.23424 16.1933 3.84507 0 0 0
418 24 2 -0.174311 5.28218 15.3056 3.65882 0 0 0
419 24 1 -0.050311 5.44029 13.9828 4.44245 0 0 0
420 24 1 -0.091211 6.56997 14.1011 5.40607 0 0 0
421 24 3 0.033922 1.82585 15.5173 2.95055 0 0 0
422 24 3 0.033922 1.00711 14.9558 4.37656 0 0 0
423 24 3 0.033922 2.32006 14.0192 3.7164 0 0 0
424 24 3 0.046089 2.48004 16.7676 5.09699 0 0 0
425 24 3 0.046089 3.1576 15.225 5.54454 0 0 0
426 24 4 0.121889 4.30773 17.013 3.13742 0 0 0
427 24 4 0.121889 6.10825 15.5088 2.98475 0 0 0
428 24 3 0.046089 5.43408 13.0705 3.83893 0 0 0
429 24 3 0.046089 4.52884 13.8738 5.03747 0 0 0
430 24 3 0.033922 7.55968 13.9395 4.96901 0 0 0
431 24 3 0.033922 6.60584 15.093 5.86586 0 0 0
432 24 3 0.033922 6.46644 13.329 6.17402 0 0 0
433 25 1 -0.091211 3.05574 4.0431 13.9842 0 0 0
434 25 1 -0.050311 2.51139 5.04439 14.9895 0 0 0
435 25 2 -0.174311 1.93116 4.33889 16.2496 0 0 0
436 25 2 -0.174311 2.69233 3.7215 17.2866 0 0 0
437 25 1 -0.050311 4.26097 3.71204 17.2544 0 0 0
438 25 1 -0.091211 4.7769 2.37465 17.7502 0 0 0
439 25 3 0.033922 3.5171 3.23085 14.5535 0 0 0
440 25 3 0.033922 3.89058 4.43185 13.3938 0 0 0
441 25 3 0.033922 2.24226 3.6108 13.3943 0 0 0
442 25 3 0.046089 3.26506 5.76032 15.3302 0 0 0
443 25 3 0.046089 1.77221 5.59601 14.4013 0 0 0
444 25 4 0.121889 0.87926 4.14474 16.4337 0 0 0
445 25 4 0.121889 2.27011 3.14396 18.1028 0 0 0
446 25 3 0.046089 4.63798 4.51404 17.8958 0 0 0
447 25 3 0.046089 4.59227 3.76425 16.2132 0 0 0
448 25 3 0.033922 4.41373 1.53257 17.1538 0 0 0
449 25 3 0.033922 5.86418 2.49491 17.7572 0 0 0
450 25 3 0.033922 4.43425 2.29672 18.7861 0 0 0
451 26 1 -0.091211 2.96856 13.2001 21.0265 0 -1 0
452 26 1 -0.050311 2.22908 12.7419 0.238521 0 -1 1
453 26 2 -0.174311 0.864107 12.2192 -0.093305 0 -1 1
454 26 2 -0.174311 -0.0692902 11.741 0.84558 0 -1 1
455 26 1 -0.050311 0.156395 11.7596 2.339 0 -1 1
456 26 1 -0.091211 -0.821567 12.6812 3.13789 0 -1 1
457 26 3 0.033922 3.08375 12.3018 20.4131 0 -1 0
458 26 3 0.033922 3.93907 13.6479 21.2596 0 -1 0
459 26 3 0.033922 2.28471 13.8534 20.4767 0 -1 0
460 26 3 0.046089 2.83132 11.9253 0.647287 0 -1 1
461 26 3 0.046089 2.26766 13.5777 0.943187 0 -1 1
462 26 4 0.121889 0.607799 12.2365 20.9872 0 -1 0
463 26 4 0.121889 -0.982514 11.4213 0.353793 0 -1 1
464 26 3 0.046089 1.20389 11.9892 2.55522 0 -1 1
465 26 3 0.046089 -0.0504844 10.7333 2.65612 0 -1 1
466 26 3 0.033922 -0.701883 12.5665 4.21915 0 -1 1
467 26 3 0.033922 -0.601759 13.7326 2.9311 0 -1 1
468 26 3 0.033922 -1.83933 12.4219 2.83191 0 -1 1
469 27 1 -0.091211 13.2652 16.2815 0.269896 0 0 0
470 27 1 -0.050311 14.4638 15.514 -0.194293 0 0 0
471 27 2 -0.174311 15.6576 16.3745 21.6132 0 0 -1
472 27 2 -0.174311 16.9397 15.8966 21.36 0 0 -1
473 27 1 -0.050311 17.4143 14.4681 21.303 0 0 -1
474 27 1 -0.091211 18.8836 14.249 20.9511 0 0 -1
475 27 3 0.033922 12.3707 15.7327 0.578713 0 0 0
476 27 3 0.033922 12.9102 17.0065 21.6667 0 0 -1
477 27 3 0.033922 13.5388 16.8178 1.18324 0 0 0
478 27 3 0.046089 14.6392 14.7828 0.600214 0 0 0
479 27 3 0.046089 14.1982 14.9513 21.0411 0 0 -1
480 27 4 0.121889 15.4246 17.4331 -0.577286 0 0 0
481 27 4 0.121889 17.7045 16.6532 21.2162 0 0 -1
482 27 3 0.046089 16.8193 13.8656 20.6104 0 0 -1
483 27 3 0.046089 17.2693 14.0318 0.160572 0 0 0
484 27 3 0.033922 19.4151 14.671 -0.325993 0 0 0
485 27 3 0.033922 19.0525 13.1823 20.7769 0 0 -1
486 27 3 0.033922 19.1997 14.9458 20.1694 0 0 -1
487 28 1 -0.091211 8.44238 15.6933 20.9053 0 -1 -1
488 28 1 -0.050311 7.47318 15.5366 -0.110201 0 -1 0
489 28 2 -0.174311 7.41922 16.6861 0.895816 0 -1 0
490 28 2 -0.174311 8.41815 17.0956 1.7741 0 -1 0
491 28 1 -0.050311 9.84375 16.6276 1.93144 0 -1 0
492 28 1 -0.091211 10.2948 16.5077 3.37515 0 -1 0
493 28 3 0.033922 8.49789 14.7509 20.3526 0 -1 -1
494 28 3 0.033922 9.43656 15.806 21.3475 0 -1 -1
495 28 3 0.033922 8.22201 16.5758 20.2976 0 -1 -1
496 28 3 0.046089 6.49308 15.4586 21.5453 0 -1 -1
497 28 3 0.046089 7.64893 14.5917 0.412156 0 -1 0
498 28 4 0.121889 6.47076 17.2133 0.874025 0 -1 0
499 28 4 0.121889 8.02418 17.8409 2.45774 0 -1 0
500 28 3 0.046089 10.382 17.3842 1.35301 0 -1 0
501 28 3 0.046089 9.90136 15.6477 1.44862 0 -1 0
502 28 3 0.033922 11.3067 16.092 3.38489 0 -1 0
503 28 3 0.033922 10.2699 17.4476 3.93427 0 -1 0
504 28 3 0.033922 9.71258 15.7046 3.83646 0 -1 0
505 29 1 -0.091211 6.96112 7.78345 6.28083 0 0 0
506 29 1 -0.050311 6.75381 6.90939 5.12164 0 0 0
507 29 2 -0.174311 5.70443 7.51571 4.1819 0 0 0
508 29 2 -0.174311 5.65836 7.14532 2.82602 0 0 0
509 29 1 -0.050311 6.37986 6.04313 2.13451 0 0 0
510 29 1 -0.091211 5.48063 5.00501 1.49329 0 0 0
511 29 3 0.033922 6.05153 7.87998 6.88083 0 0 0
512 29 3 0.033922 7.23718 8.8024 5.99416 0 0 0
513 29 3 0.033922 7.69254 7.23787 6.88418 0 0 0
514 29 3 0.046089 7.72683 6.75388 4.64651 0 0 0
515 29 3 0.046089 6.41942 5.88599 5.31526 0 0 0
516 29 4 0.121889 5.12252 8.37209 4.50754 0 0 0
517 29 4 0.121889 4.95342 7.72098 2.23464 0 0 0
518 29 3 0.046089 6.93765 5.47752 2.88657 0 0 0
519 29 3 0.046089 7.08958 6.37733 1.37211 0 0 0
520 29 3 0.033922 4.70325 4.62072 2.16012 0 0 0
521 29 3 0.033922 4.97929 5.36036 0.588295 0 0 0
522 29 3 0.033922 6.10399 4.14803 1.22187 0 0 0
523 30 1 -0.091211 3.26691 5.11826 7.69431 0 1 1
524 30 1 -0.050311 2.23593 3.9302 7.66526 0 1 1
525 30 2 -0.174311 1.10462 4.20625 6.7253 0 1 1
526 30 2 -0.174311 0.857376 3.73009 5.42565 0 1 1
527 30 1 -0.050311 1.96304 2.89264 4.77962 0 1 1
528 30 1 -0.091211 2.1155 3.15222 3.27425 0 1 1
529 30 3 0.033922 2.71713 6.04479 7.88389 0 1 1
530 30 3 0.033922 3.82984 5.1508 6.75692 0 1 1
531 30 3 0.033922 4.04442 5.06559 8.46201 0 1 1
532 30 3 0.046089 2.73256 3.0026 7.36599 0 1 1
533 30 3 0.046089 1.92314 3.80058 8.70545 0 1 1
534 30 4 0.121889 0.469383 5.03439 7.02314 0 1 1
535 30 4 0.121889 -0.00756458 4.02094 4.83799 0 1 1
536 30 3 0.046089 1.63776 1.85438 4.89302 0 1 1
537 30 3 0.046089 2.96942 3.01905 5.18938 0 1 1
538 30 3 0.033922 3.05098 2.71825 2.90924 0 1 1
539 30 3 0.033922 1.31512 2.71419 2.67077 0 1 1
540 30 3 0.033922 2.12718 4.24012 3.1603 0 1 1
541 31 1 -0.091211 20.6027 18.9732 0.094982 0 0 1
542 31 1 -0.050311 20.4928 19.4645 20.7772 0 0 0
543 31 2 -0.174311 20.5752 18.2372 19.8927 0 0 0
544 31 2 -0.174311 20.4763 18.2512 18.4557 0 0 0
545 31 1 -0.050311 20.2804 19.4892 17.6128 0 0 0
546 31 1 -0.091211 21.3831 19.5712 16.5455 0 0 0
547 31 3 0.033922 20.5138 19.7405 0.869631 0 0 1
548 31 3 0.033922 21.601 18.5617 0.270118 0 0 1
549 31 3 0.033922 19.7988 18.2651 0.316494 0 0 1
550 31 3 0.046089 19.5805 20.0336 20.5757 0 0 0
551 31 3 0.046089 21.3131 20.1394 20.5157 0 0 0
552 31 4 0.121889 20.7707 17.3297 20.4551 0 0 0
553 31 4 0.121889 20.5236 17.3403 17.8675 0 0 0
554 31 3 0.046089 20.2529 20.3965 18.2233 0 0 0
555 31 3 0.046089 19.3589 19.4111 17.0284 0 0 0
556 31 3 0.033922 22.3303 19.8443 17.0198 0 0 0
557 31 3 0.033922 21.488 18.6746 15.9277 0 0 0
558 31 3 0.033922 21.1253 1.07549 15.8744 0 1 0
559 32 1 -0.091211 17.614 2.24698 3.40374 0 1 0
560 32 1 -0.050311 16.5806 3.31908 3.45079 0 1 0
561 32 2 -0.174311 16.4796 4.06418 2.17866 0 1 0
562 32 2 -0.174311 15.4034 4.07324 1.38003 0 1 0
563 32 1 -0.050311 14.1492 3.35825 1.71421 0 1 0
564 32 1 -0.091211 12.9575 3.76568 0.860343 0 1 0
565 32 3 0.033922 17.4124 1.6329 4.28628 0 1 0
566 32 3 0.033922 18.6225 2.67062 3.39 0 1 0
567 32 3 0.033922 17.4462 1.66692 2.4916 0 1 0
568 32 3 0.046089 15.6251 2.81477 3.62177 0 1 0
569 32 3 0.046089 16.709 4.03983 4.2636 0 1 0
570 32 4 0.121889 17.2419 4.68419 1.71774 0 1 0
571 32 4 0.121889 15.435 4.69241 0.48916 0 1 0
572 32 3 0.046089 13.8049 3.55522 2.73366 0 1 0
573 32 3 0.046089 14.2497 2.27785 1.57537 0 1 0
574 32 3 0.033922 12.0613 3.33621 1.31758 0 1 0
575 32 3 0.033922 12.8244 4.84337 0.727961 0 1 0
576 32 3 0.033922 13.1272 3.31167 -0.120313 0 1 0
577 33 1 -0.091211 14.7685 11.293 13.1999 0 0 0
578 33 1 -0.050311 14.6053 12.3102 14.4129 0 0 0
579 33 2 -0.174311 15.8913 12.6953 15.0892 0 0 0
580 33 2 -0.174311 15.9501 13.7228 16.0176 0 0 0
581 33 1 -0.050311 14.7412 14.5536 16.4233 0 0 0
582 33 1 -0.091211 14.7358 14.8967 17.9408 0 0 0
583 33 3 0.033922 14.8218 10.2641 13.5675 0 0 0
584 33 3 0.033922 15.572 11.6072 12.5273 0 0 0
585 33 3 0.033922 13.842 11.2996 12.6182 0 0 0
586 33 3 0.046089 14.1303 13.2289 14.0564 0 0 0
587 33 3 0.046089 13.8914 11.8753 15.1185 0 0 0
588 33 4 0.121889 16.8316 12.3304 14.6881 0 0 0
589 33 4 0.121889 16.9839 14.0052 16.1896 0 0 0
590 33 3 0.046089 13.8086 14.0368 16.1783 0 0 0
591 33 3 0.046089 14.8042 15.4393 15.7845 0 0 0
592 33 3 0.033922 14.8937 14.0894 18.6618 0 0 0
593 33 3 0.033922 15.4819 15.6885 18.0556 0 0 0
594 33 3 0.033922 13.8171 15.4207 18.2205 0 0 0
595 34 1 -0.091211 15.8067 2.00869 7.28831 0 1 0
596 34 1 -0.050311 16.2561 2.85751 8.47229 0 1 0
597 34 2 -0.174311 15.1553 2.9813 9.46159 0 1 0
598 34 2 -0.174311 14.8142 2.06621 10.4858 0 1 0
599 34 1 -0.050311 15.5329 20.1624 10.7574 0 0 0
600 34 1 -0.091211 14.8787 19.3979 11.8157 0 0 0
601 34 3 0.033922 16.029 20.2587 7.329 0 0 0
602 34 3 0.033922 16.3651 2.32638 6.40294 0 1 0
603 34 3 0.033922 14.7401 2.1566 7.09518 0 1 0
604 34 3 0.046089 17.1326 2.39551 8.93608 0 1 0
605 34 3 0.046089 16.5331 3.88086 8.20265 0 1 0
606 34 4 0.121889 14.6726 3.94471 9.33169 0 1 0
607 34 4 0.121889 13.9738 2.47663 11.0365 0 1 0
608 34 3 0.046089 16.5378 20.475 11.0557 0 0 0
609 34 3 0.046089 15.6269 19.5203 9.87677 0 0 0
610 34 3 0.033922 14.4816 19.9391 12.6795 0 0 0
611 34 3 0.033922 13.9656 19.0169 11.349 0 0 0
612 34 3 0.033922 15.4261 18.4945 12.1001 0 0 0
613 35 1 -0.091211 35.3695 10.7701 17.9047 -1 0 0
614 35 1 -0.050311 35.6893 10.7558 19.4008 -1 0 0
615 35 2 -0.174311 36.1807 12.0824 19.8286 -1 0 0