ITEM: TIMESTEP
40400
ITEM: NUMBER OF ATOMS
1800
ITEM: BOX BOUNDS pp pp pp
-5.3606153661253231e-01 3.9344077036612447e+01
-9.4678845640686760e-01 2.2555443956407391e+01
-4.2090765609414049e-01 2.1674641156094125e+01
ITEM: ATOMS id mol type q x y z ix iy iz
1 1 1 -0.091211 3.97798 17.2618 6.52078 0 -1 0
2 1 1 -0.050311 5.23567 17.9931 6.88398 0 -1 0
3 1 2 -0.174311 4.92747 19.4375 7.34868 0 -1 0
4 1 2 -0.174311 5.95427 20.3181 7.57748 0 -1 0
5 1 1 -0.050311 7.38297 20.1103 7.28458 0 -1 0
6 1 1 -0.091211 8.00841 20.8691 6.11437 0 -1 0
7 1 3 0.033922 3.25336 17.1298 7.32959 0 -1 0
8 1 3 0.033922 4.27276 16.2562 6.20695 0 -1 0
9 1 3 0.033922 3.43243 17.7004 5.68011 0 -1 0
10 1 3 0.046089 5.75932 17.49 7.70212 0 -1 0
11 1 3 0.046089 5.95224 17.8979 6.06292 0 -1 0
12 1 4 0.121889 3.88125 19.6569 7.5368 0 -1 0
13 1 4 0.121889 5.75532 21.3245 7.93208 0 -1 0
14 1 3 0.046089 7.56004 19.0414 7.1331 0 -1 0
15 1 3 0.046089 7.89981 20.3042 8.22901 0 -1 0
16 1 3 0.033922 8.85092 20.2959 5.71654 0 -1 0
17 1 3 0.033922 7.19903 21.0678 5.40578 0 -1 0
18 1 3 0.033922 8.46615 21.8315 6.36108 0 -1 0
19 2 1 -0.091211 5.83328 4.27573 17.1407 0 0 0
20 2 1 -0.050311 6.84316 3.35372 17.7861 0 0 0
21 2 2 -0.174311 6.75116 1.92842 17.3065 0 0 0
22 2 2 -0.174311 7.69999 1.45162 16.411 0 0 0
23 2 1 -0.050311 8.85847 2.20241 15.8693 0 0 0
24 2 1 -0.091211 9.81049 1.23154 15.094 0 0 0
25 2 3 0.033922 4.78491 4.10273 17.4009 0 0 0
26 2 3 0.033922 5.95235 4.31723 16.0541 0 0 0
27 2 3 0.033922 6.16853 5.23867 17.537 0 0 0
28 2 3 0.046089 7.8379 3.79354 17.6688 0 0 0
29 2 3 0.046089 6.63337 3.35342 18.8597 0 0 0
30 2 4 0.121889 5.94696 1.25369 17.5823 0 0 0
31 2 4 0.121889 7.55124 0.448634 16.0237 0 0 0
32 2 3 0.046089 9.49593 2.66107 16.6309 0 0 0
33 2 3 0.046089 8.59467 3.0888 15.285 0 0 0
34 2 3 0.033922 10.7822 1.73083 15.0375 0 0 0
35 2 3 0.033922 9.93159 0.231727 15.5211 0 0 0
36 2 3 0.033922 9.55415 1.09249 14.0397 0 0 0
37 3 1 -0.091211 7.98974 7.4482 6.59771 0 0 0
38 3 1 -0.050311 7.73879 7.38951 8.07733 0 0 0
39 3 2 -0.174311 6.92505 6.21169 8.41504 0 0 0
40 3 2 -0.174311 5.69976 6.16477 9.08628 0 0 0
41 3 1 -0.050311 4.97551 7.34521 9.61706 0 0 0
42 3 1 -0.091211 4.14332 6.89661 10.8684 0 0 0
43 3 3 0.033922 8.40826 6.56558 6.10526 0 0 0
44 3 3 0.033922 8.55503 8.34579 6.33034 0 0 0
45 3 3 0.033922 6.98273 7.58226 6.19194 0 0 0
46 3 3 0.046089 8.69388 7.26462 8.59589 0 0 0
47 3 3 0.046089 7.24183 8.34156 8.28547 0 0 0
48 3 4 0.121889 7.2178 5.22598 8.06757 0 0 0
49 3 4 0.121889 5.24743 5.18891 9.23178 0 0 0
50 3 3 0.046089 4.31599 7.72165 8.82966 0 0 0
51 3 3 0.046089 5.6023 8.1638 9.98276 0 0 0
52 3 3 0.033922 3.55376 7.72738 11.2671 0 0 0
53 3 3 0.033922 3.49427 6.04592 10.6409 0 0 0
54 3 3 0.033922 4.75992 6.61092 11.7256 0 0 0
55 4 1 -0.091211 3.94555 2.17687 9.74126 0 0 0
56 4 1 -0.050311 3.63799 1.49418 8.45958 0 0 0
57 4 2 -0.174311 4.8005 1.63304 7.54833 0 0 0
58 4 2 -0.174311 4.69206 1.60277 6.20514 0 0 0
59 4 1 -0.050311 3.3603 1.44519 5.41785 0 0 0
60 4 1 -0.091211 3.69237 1.81226 3.96949 0 0 0
61 4 3 0.033922 3.07866 1.91722 10.3559 0 0 0
62 4 3 0.033922 3.86662 3.24607 9.52387 0 0 0
63 4 3 0.033922 4.82449 1.79995 10.2724 0 0 0
64 4 3 0.046089 3.60175 0.416448 8.64364 0 0 0
65 4 3 0.046089 2.64378 1.77765 8.10195 0 0 0
66 4 4 0.121889 5.79218 1.61528 7.98917 0 0 0
67 4 4 0.121889 5.64834 1.52369 5.69784 0 0 0
68 4 3 0.046089 2.55238 2.10225 5.75284 0 0 0
69 4 3 0.046089 3.01399 0.407569 5.42816 0 0 0
70 4 3 0.033922 2.82161 1.52959 3.37069 0 0 0
71 4 3 0.033922 3.90907 2.88106 3.8835 0 0 0
72 4 3 0.033922 4.56754 1.24918 3.63227 0 0 0
73 5 1 -0.091211 -0.502735 1.19088 3.72691 0 0 0
74 5 1 -0.050311 39.0861 2.3289 2.76117 -1 0 0
75 5 2 -0.174311 0.0894246 3.52116 3.00951 0 0 0
76 5 2 -0.174311 -0.371107 4.78636 2.82607 0 0 0
77 5 1 -0.050311 38.0666 5.15948 2.68836 -1 0 0
78 5 1 -0.091211 37.3447 5.24815 3.92605 -1 0 0
79 5 3 0.033922 38.7265 0.320794 3.60049 -1 0 0
80 5 3 0.033922 39.2319 1.47259 4.77388 -1 0 0
81 5 3 0.033922 0.509551 0.817367 3.54672 0 0 0
82 5 3 0.046089 39.3269 1.9785 1.75327 -1 0 0
83 5 3 0.046089 38.0201 2.55327 2.66068 -1 0 0
84 5 4 0.121889 1.15138 3.40946 3.20411 0 0 0
85 5 4 0.121889 0.240934 5.68227 2.85475 0 0 0
86 5 3 0.046089 37.5179 4.5014 2.00826 -1 0 0
87 5 3 0.046089 38.0936 6.14429 2.21285 -1 0 0
88 5 3 0.033922 36.2543 5.30774 3.86178 -1 0 0
89 5 3 0.033922 37.592 4.47931 4.66389 -1 0 0
90 5 3 0.033922 37.6191 6.18593 4.41797 -1 0 0
91 6 1 -0.091211 11.1426 1.42057 19.588 0 0 0
92 6 1 -0.050311 10.8708 2.84748 20.0327 0 0 0
93 6 2 -0.174311 10.9017 2.96497 21.582 0 0 0
94 6 2 -0.174311 10.7139 4.14688 0.161005 0 0 1
95 6 1 -0.050311 10.3607 5.39176 21.4284 0 0 0
96 6 1 -0.091211 8.87547 5.52558 21.2489 0 0 0
97 6 3 0.033922 10.3074 0.761841 19.8432 0 0 0
98 6 3 0.033922 12.0532 0.983315 20.0079 0 0 0
99 6 3 0.033922 11.4418 1.48657 18.5379 0 0 0
100 6 3 0.046089 11.6693 3.4821 19.6372 0 0 0
101 6 3 0.046089 9.94593 3.24465 19.6044 0 0 0
102 6 4 0.121889 11.1214 2.09465 0.0965958 0 0 1
103 6 4 0.121889 10.7575 4.19684 1.24436 0 0 1
104 6 3 0.046089 10.9047 5.32357 20.4818 0 0 0
105 6 3 0.046089 10.6539 6.3296 -0.186321 0 0 1
106 6 3 0.033922 8.75174 6.37691 20.5732 0 0 0
107 6 3 0.033922 8.4756 4.70427 20.647 0 0 0
108 6 3 0.033922 8.35939 5.70217 0.101567 0 0 1
109 7 1 -0.091211 33.7452 16.0953 7.59505 -1 0 0
110 7 1 -0.050311 35.1171 16.0378 7.16669 -1 0 0
111 7 2 -0.174311 36.0118 16.8272 8.09652 -1 0 0
112 7 2 -0.174311 36.8905 17.7757 7.72578 -1 0 0
113 7 1 -0.050311 37.2452 18.1203 6.36105 -1 0 0
114 7 1 -0.091211 38.6822 18.6569 6.36208 -1 0 0
115 7 3 0.033922 33.4952 17.1599 7.62371 -1 0 0
116 7 3 0.033922 33.6559 15.7077 8.61412 -1 0 0
117 7 3 0.033922 33.1267 15.5738 6.85867 -1 0 0
118 7 3 0.046089 35.5019 15.0182 7.26177 -1 0 0
119 7 3 0.046089 35.2272 16.3947 6.13848 -1 0 0
120 7 4 0.121889 35.9322 16.6572 9.16555 -1 0 0
121 7 4 0.121889 37.43 18.2088 8.56211 -1 0 0
122 7 3 0.046089 36.543 18.8802 6.00586 -1 0 0
123 7 3 0.046089 37.2061 17.2496 5.70005 -1 0 0
124 7 3 0.033922 -0.423879 18.1071 6.90546 0 0 0
125 7 3 0.033922 39.0736 18.7306 5.34324 -1 0 0
126 7 3 0.033922 38.7638 19.6396 6.83583 -1 0 0
127 8 1 -0.091211 0.60568 9.25383 20.2947 0 0 0
128 8 1 -0.050311 0.810521 7.77104 20.2658 0 0 0
129 8 2 -0.174311 0.34636 7.12546 18.9627 0 0 0
130 8 2 -0.174311 1.2301 6.83177 17.9034 0 0 0
131 8 1 -0.050311 2.71137 7.14104 17.9549 0 0 0
132 8 1 -0.091211 3.30091 7.20073 16.5285 0 0 0
133 8 3 0.033922 1.00593 9.64978 21.2326 0 0 0
134 8 3 0.033922 -0.453083 9.52842 20.2766 0 0 0
135 8 3 0.033922 1.18854 9.73056 19.5011 0 0 0
136 8 3 0.046089 1.88204 7.63659 20.4403 0 0 0
137 8 3 0.046089 0.292311 7.35192 21.1333 0 0 0
138 8 4 0.121889 39.1618 6.91476 18.9676 -1 0 0
139 8 4 0.121889 0.791081 6.31026 17.0588 0 0 0
140 8 3 0.046089 3.24546 6.31068 18.426 0 0 0
141 8 3 0.046089 2.9065 8.06128 18.5132 0 0 0
142 8 3 0.033922 4.26249 7.72083 16.489 0 0 0
143 8 3 0.033922 3.44453 6.19536 16.1219 0 0 0
144 8 3 0.033922 2.55969 7.70189 15.8991 0 0 0
145 9 1 -0.091211 0.587185 14.1727 20.3809 0 0 0
146 9 1 -0.050311 -0.47196 14.5798 21.4775 0 0 0
147 9 2 -0.174311 0.169161 15.6488 0.263422 0 0 1
148 9 2 -0.174311 -0.550105 16.6685 0.913317 0 0 1
149 9 1 -0.050311 37.8182 16.7916 0.757456 -1 0 1
150 9 1 -0.091211 37.1404 17.3351 1.98038 -1 0 1
151 9 3 0.033922 0.92126 14.9796 19.722 0 0 0
152 9 3 0.033922 0.0947022 13.4353 19.7402 0 0 0
153 9 3 0.033922 1.39852 13.6671 20.9126 0 0 0
154 9 3 0.046089 38.4894 14.9385 21.0043 -1 0 0
155 9 3 0.046089 39.207 13.6895 -0.0150601 -1 0 1
156 9 4 0.121889 1.24096 15.6197 0.432227 0 0 1
157 9 4 0.121889 0.0043504 17.3282 1.57317 0 0 1
158 9 3 0.046089 37.3061 15.8579 0.507011 -1 0 1
159 9 3 0.046089 37.6021 17.5156 -0.0335742 -1 0 1
160 9 3 0.033922 37.3862 18.3763 2.20848 -1 0 1
161 9 3 0.033922 36.0601 17.2831 1.81606 -1 0 1
162 9 3 0.033922 37.3569 16.869 2.9461 -1 0 1
163 10 1 -0.091211 11.8721 9.21338 10.9637 0 0 1
164 10 1 -0.050311 13.3037 8.78921 10.4225 0 0 1
165 10 2 -0.174311 13.2774 9.00468 8.87385 0 0 1
166 10 2 -0.174311 13.2276 7.9424 7.98018 0 0 1
167 10 1 -0.050311 13.268 6.48904 8.30552 0 0 1
168 10 1 -0.091211 11.8202 5.90664 8.48181 0 0 1
169 10 3 0.033922 11.8472 10.2879 10.76 0 0 1
170 10 3 0.033922 11.7906 9.04712 12.0418 0 0 1
171 10 3 0.033922 11.1044 8.63278 10.444 0 0 1
172 10 3 0.046089 14.1531 9.3255 10.8556 0 0 1
173 10 3 0.046089 13.6024 7.77395 10.6995 0 0 1
174 10 4 0.121889 13.0886 9.96077 8.39603 0 0 1
175 10 4 0.121889 13.0944 8.13867 6.92102 0 0 1
176 10 3 0.046089 13.7775 6.21202 9.23307 0 0 1
177 10 3 0.046089 13.8797 5.95441 7.57295 0 0 1
178 10 3 0.033922 12.0179 4.83912 8.34757 0 0 1
179 10 3 0.033922 11.4309 6.11302 9.48306 0 0 1
180 10 3 0.033922 11.1655 6.26857 7.68365 0 0 1
181 11 1 -0.091211 0.484161 14.859 4.15558 0 0 0
182 11 1 -0.050311 39.2902 13.9128 4.44496 -1 0 0
183 11 2 -0.174311 38.1782 13.9617 3.39414 -1 0 0
184 11 2 -0.174311 36.9736 13.3424 3.67455 -1 0 0
185 11 1 -0.050311 36.6435 12.5185 4.8899 -1 0 0
186 11 1 -0.091211 35.3696 11.6982 4.7768 -1 0 0
187 11 3 0.033922 0.758299 14.8119 3.09762 0 0 0
188 11 3 0.033922 1.27785 14.5865 4.85736 0 0 0
189 11 3 0.033922 0.194859 15.8915 4.37262 0 0 0
190 11 3 0.046089 -0.200738 12.8905 4.45803 0 0 0
191 11 3 0.046089 38.9899 14.049 5.488 -1 0 0
192 11 4 0.121889 38.2632 14.4869 2.44812 -1 0 0
193 11 4 0.121889 36.2613 13.4041 2.85791 -1 0 0
194 11 3 0.046089 36.6515 13.2387 5.71332 -1 0 0
195 11 3 0.046089 37.4237 11.7568 4.97783 -1 0 0
196 11 3 0.033922 34.4768 12.3048 4.59891 -1 0 0
197 11 3 0.033922 35.4487 10.9488 3.98378 -1 0 0
198 11 3 0.033922 35.1832 11.1657 5.71405 -1 0 0
199 12 1 -0.091211 2.50151 12.9965 1.53846 0 0 0
200 12 1 -0.050311 2.84317 12.2255 2.78468 0 0 0
201 12 2 -0.174311 4.33166 12.5159 3.10354 0 0 0
202 12 2 -0.174311 4.80643 12.8849 4.41262 0 0 0
203 12 1 -0.050311 4.00593 12.9613 5.66119 0 0 0
204 12 1 -0.091211 4.70281 12.1204 6.69548 0 0 0
205 12 3 0.033922 3.00077 12.4726 0.718164 0 0 0
206 12 3 0.033922 2.8322 14.0386 1.57695 0 0 0
207 12 3 0.033922 1.43177 12.9598 1.3126 0 0 0
208 12 3 0.046089 2.21298 12.6131 3.59048 0 0 0
209 12 3 0.046089 2.68553 11.1548 2.62505 0 0 0
210 12 4 0.121889 5.01828 12.322 2.28561 0 0 0
211 12 4 0.121889 5.87706 13.0219 4.52697 0 0 0
212 12 3 0.046089 2.994 12.576 5.50559 0 0 0
213 12 3 0.046089 3.81506 14.0033 5.93419 0 0 0
214 12 3 0.033922 5.70271 12.5108 6.90626 0 0 0
215 12 3 0.033922 4.21414 12.1422 7.67394 0 0 0
216 12 3 0.033922 4.74958 11.0601 6.43012 0 0 0
217 13 1 -0.091211 8.12418 12.1512 9.38411 0 0 0
218 13 1 -0.050311 7.15048 13.1407 9.87923 0 0 0
219 13 2 -0.174311 7.849 14.0844 10.8271 0 0 0
220 13 2 -0.174311 7.16261 15.0906 11.5064 0 0 0
221 13 1 -0.050311 5.64815 15.3985 11.3023 0 0 0
222 13 1 -0.091211 5.28218 16.8917 11.5512 0 0 0
223 13 3 0.033922 8.31062 11.4617 10.2127 0 0 0
224 13 3 0.033922 8.99816 12.6997 9.02085 0 0 0
225 13 3 0.033922 7.73448 11.7011 8.46641 0 0 0
226 13 3 0.046089 6.74817 13.6319 8.98839 0 0 0
227 13 3 0.046089 6.33355 12.6233 10.3907 0 0 0
228 13 4 0.121889 8.92493 14.1565 10.9507 0 0 0
229 13 4 0.121889 7.83968 15.7203 12.0748 0 0 0
230 13 3 0.046089 5.04702 14.7918 11.9859 0 0 0
231 13 3 0.046089 5.46946 15.1672 10.2481 0 0 0
232 13 3 0.033922 6.06375 17.3586 12.1577 0 0 0
233 13 3 0.033922 5.29617 17.4779 10.6277 0 0 0
234 13 3 0.033922 4.39033 16.9262 12.1837 0 0 0
235 14 1 -0.091211 13.0275 4.8574 12.1111 0 0 0
236 14 1 -0.050311 13.0178 5.4835 13.5759 0 0 0
237 14 2 -0.174311 12.2454 4.58746 14.5638 0 0 0
238 14 2 -0.174311 11.6708 5.17602 15.6789 0 0 0
239 14 1 -0.050311 11.8959 6.54077 16.2611 0 0 0
240 14 1 -0.091211 10.5708 7.18168 16.7763 0 0 0
241 14 3 0.033922 11.9912 4.77039 11.7718 0 0 0
242 14 3 0.033922 13.5697 3.90838 12.0647 0 0 0
243 14 3 0.033922 13.4629 5.59768 11.4335 0 0 0
244 14 3 0.046089 14.0424 5.55625 13.9522 0 0 0
245 14 3 0.046089 12.7086 6.53246 13.6036 0 0 0
246 14 4 0.121889 12.1122 3.52802 14.369 0 0 0
247 14 4 0.121889 11.1479 4.48725 16.3348 0 0 0
248 14 3 0.046089 12.4019 7.16812 15.5214 0 0 0
249 14 3 0.046089 12.5914 6.56491 17.1052 0 0 0
250 14 3 0.033922 10.7335 8.19099 17.1656 0 0 0
251 14 3 0.033922 9.98244 7.14394 15.8549 0 0 0
252 14 3 0.033922 10.0952 6.60997 17.5786 0 0 0
253 15 1 -0.091211 39.3553 21.925 15.8577 -1 0 0
254 15 1 -0.050311 0.59487 21.2965 16.6485 0 0 0
255 15 2 -0.174311 0.223536 19.8427 17.0206 0 0 0
256 15 2 -0.174311 1.02952 19.0086 17.7709 0 0 0
257 15 1 -0.050311 2.43281 19.2537 18.0937 0 0 0
258 15 1 -0.091211 3.44735 18.2476 17.3687 0 0 0
259 15 3 0.033922 38.9807 21.2468 15.0855 -1 0 0
260 15 3 0.033922 -0.182827 -0.723688 15.2652 0 1 0
261 15 3 0.033922 38.5587 22.36 16.4683 -1 0 0
262 15 3 0.046089 1.53573 21.3049 16.0905 0 0 0
263 15 3 0.046089 0.754045 21.8838 17.5576 0 0 0
264 15 4 0.121889 39.0897 19.6271 16.6989 -1 0 0
265 15 4 0.121889 0.542891 18.0926 18.0904 0 0 0
266 15 3 0.046089 2.65142 19.121 19.1573 0 0 0
267 15 3 0.046089 2.70206 20.2659 17.7782 0 0 0
268 15 3 0.033922 3.17768 18.179 16.3108 0 0 0
269 15 3 0.033922 4.47128 18.6138 17.4877 0 0 0
270 15 3 0.033922 3.33681 17.237 17.7725 0 0 0
271 16 1 -0.091211 12.7985 -0.122844 5.31952 0 1 0
272 16 1 -0.050311 11.705 0.222075 6.36399 0 1 0
273 16 2 -0.174311 10.2891 0.167853 5.66191 0 1 0
274 16 2 -0.174311 9.12319 0.783163 6.18164 0 1 0
275 16 1 -0.050311 8.98437 1.38927 7.5327 0 1 0
276 16 1 -0.091211 8.70653 2.93067 7.40022 0 1 0
277 16 3 0.033922 12.5335 22.4244 4.85647 0 0 0
278 16 3 0.033922 13.8029 -0.220772 5.74184 0 1 0
279 16 3 0.033922 12.8372 0.660629 4.55705 0 1 0
280 16 3 0.046089 11.7638 -0.350398 7.29431 0 1 0
281 16 3 0.046089 11.944 1.2412 6.6818 0 1 0
282 16 4 0.121889 10.2655 -0.322908 4.6941 0 1 0
283 16 4 0.121889 8.18269 0.856355 5.64482 0 1 0
284 16 3 0.046089 9.83128 1.19286 8.19667 0 1 0
285 16 3 0.046089 8.08309 0.875426 7.87961 0 1 0
286 16 3 0.033922 8.50606 3.38821 8.37343 0 1 0
287 16 3 0.033922 9.54323 3.38079 6.85798 0 1 0
288 16 3 0.033922 7.78605 3.07219 6.8263 0 1 0
289 17 1 -0.091211 8.11923 13.1983 18.809 0 0 0
290 17 1 -0.050311 8.37601 14.5402 18.1245 0 0 0
291 17 2 -0.174311 7.38945 14.6424 17.0425 0 0 0
292 17 2 -0.174311 7.68626 14.4278 15.7297 0 0 0
293 17 1 -0.050311 8.93482 13.9121 15.1429 0 0 0
294 17 1 -0.091211 8.79479 12.5698 14.447 0 0 0
295 17 3 0.033922 7.04904 13.0792 19.0019 0 0 0
296 17 3 0.033922 8.51536 13.2484 19.8274 0 0 0
297 17 3 0.033922 8.56612 12.3269 18.3215 0 0 0
298 17 3 0.046089 8.10035 15.3761 18.774 0 0 0
299 17 3 0.046089 9.3921 14.7585 17.783 0 0 0
300 17 4 0.121889 6.34961 14.8429 17.2804 0 0 0
301 17 4 0.121889 6.87396 14.6093 15.0331 0 0 0
302 17 3 0.046089 9.8554 13.9873 15.7291 0 0 0
303 17 3 0.046089 9.08459 14.6169 14.3198 0 0 0
304 17 3 0.033922 9.59099 12.3271 13.7371 0 0 0
305 17 3 0.033922 8.73376 11.737 15.1537 0 0 0
306 17 3 0.033922 7.83027 12.587 13.9311 0 0 0
307 18 1 -0.091211 38.6316 10.1838 2.72632 -1 0 1
308 18 1 -0.050311 38.9521 9.07295 3.80914 -1 0 1
309 18 2 -0.174311 0.386482 9.48808 4.39118 0 0 1
310 18 2 -0.174311 0.549282 10.0189 5.64899 0 0 1
311 18 1 -0.050311 39.3491 10.0025 6.69967 -1 0 1
312 18 1 -0.091211 -0.340044 11.1252 7.8221 0 0 1
313 18 3 0.033922 37.5616 10.0772 2.5251 -1 0 1
314 18 3 0.033922 39.2896 10.0774 1.85891 -1 0 1
315 18 3 0.033922 38.8075 11.1773 3.14908 -1 0 1
316 18 3 0.046089 38.1968 8.99814 4.59693 -1 0 1
317 18 3 0.046089 38.9384 8.08945 3.33038 -1 0 1
318 18 4 0.121889 1.23938 9.55682 3.72341 0 0 1
319 18 4 0.121889 1.56589 10.2669 5.93724 0 0 1
320 18 3 0.046089 -0.455707 8.99701 7.12387 0 0 1
321 18 3 0.046089 38.3537 10.2175 6.29992 -1 0 1
322 18 3 0.033922 0.637616 10.983 8.29187 0 0 1
323 18 3 0.033922 -0.451839 12.138 7.42407 0 0 1
324 18 3 0.033922 38.8104 11.0048 8.62818 -1 0 1
325 19 1 -0.091211 14.3786 11.1288 21.4609 0 0 -1
326 19 1 -0.050311 14.5374 11.3068 0.807015 0 0 0
327 19 2 -0.174311 15.0718 12.6506 1.19502 0 0 0
328 19 2 -0.174311 15.2623 13.0926 2.52524 0 0 0
329 19 1 -0.050311 14.9619 12.131 3.6852 0 0 0
330 19 1 -0.091211 15.1789 12.8004 5.03503 0 0 0
331 19 3 0.033922 13.7867 11.9331 21.0143 0 0 -1
332 19 3 0.033922 13.8708 10.187 21.2332 0 0 -1
333 19 3 0.033922 15.3636 11.0985 20.9859 0 0 -1
334 19 3 0.046089 13.5442 11.1401 1.23408 0 0 0
335 19 3 0.046089 15.1728 10.5291 1.24096 0 0 0
336 19 4 0.121889 15.3848 13.2802 0.368204 0 0 0
337 19 4 0.121889 15.8953 13.9467 2.74409 0 0 0
338 19 3 0.046089 15.6508 11.2813 3.68035 0 0 0
339 19 3 0.046089 13.913 11.8205 3.67475 0 0 0
340 19 3 0.033922 14.5909 13.716 5.14763 0 0 0
341 19 3 0.033922 14.8625 12.086 5.80058 0 0 0
342 19 3 0.033922 16.2356 12.9899 5.24534 0 0 0
343 20 1 -0.091211 13.0901 21.9442 13.2485 0 -1 0
344 20 1 -0.050311 13.5486 20.6515 13.9313 0 -1 0
345 20 2 -0.174311 13.6661 19.5491 12.8671 0 -1 0
346 20 2 -0.174311 14.618 18.5909 12.67 0 -1 0
347 20 1 -0.050311 15.8088 18.3383 13.5549 0 -1 0
348 20 1 -0.091211 16.9573 18.8325 12.7012 0 -1 0
349 20 3 0.033922 13.8181 22.202 12.4738 0 -1 0
350 20 3 0.033922 12.9562 -0.835267 14.0587 0 0 0
351 20 3 0.033922 12.1562 21.7693 12.7064 0 -1 0
352 20 3 0.046089 14.4649 20.8233 14.5036 0 -1 0
353 20 3 0.046089 12.7034 20.3617 14.5625 0 -1 0
354 20 4 0.121889 12.8094 19.3817 12.2221 0 -1 0
355 20 4 0.121889 14.1694 17.7887 12.0927 0 -1 0
356 20 3 0.046089 15.8424 17.2723 13.798 0 -1 0
357 20 3 0.046089 15.6919 18.9388 14.4618 0 -1 0
358 20 3 0.033922 17.027 18.2735 11.7635 0 -1 0
359 20 3 0.033922 16.9162 19.9031 12.4803 0 -1 0
360 20 3 0.033922 17.9245 18.6819 13.1896 0 -1 0
361 21 1 -0.091211 1.02464 3.48451 12.6489 0 0 0
362 21 1 -0.050311 2.26476 4.08608 13.329 0 0 0
363 21 2 -0.174311 2.02145 4.1105 14.7819 0 0 0
364 21 2 -0.174311 2.41606 3.12944 15.6806 0 0 0
365 21 1 -0.050311 3.06881 1.78902 15.3312 0 0 0
366 21 1 -0.091211 2.93675 0.831239 16.4657 0 0 0
367 21 3 0.033922 0.768853 2.50157 13.0552 0 0 0
368 21 3 0.033922 1.15632 3.34294 11.5722 0 0 0
369 21 3 0.033922 0.140259 4.12464 12.7183 0 0 0
370 21 3 0.046089 3.21172 3.62679 13.0306 0 0 0
371 21 3 0.046089 2.43742 5.11577 13.0024 0 0 0
372 21 4 0.121889 1.65983 5.00595 15.2774 0 0 0
373 21 4 0.121889 2.16201 3.26823 16.7266 0 0 0
374 21 3 0.046089 4.09202 2.0266 15.0257 0 0 0
375 21 3 0.046089 2.64129 1.28223 14.4611 0 0 0
376 21 3 0.033922 1.89817 0.579708 16.6998 0 0 0
377 21 3 0.033922 3.44704 -0.0978875 16.1955 0 0 0
378 21 3 0.033922 3.40848 1.2323 17.3676 0 0 0
379 22 1 -0.091211 6.03492 22.3089 10.7151 0 -1 0
380 22 1 -0.050311 6.35813 22.2695 12.1324 0 -1 0
381 22 2 -0.174311 5.99659 20.9047 12.6926 0 -1 0
382 22 2 -0.174311 5.62558 20.7027 13.9852 0 -1 0
383 22 1 -0.050311 5.87733 21.7617 15.0267 0 -1 0
384 22 1 -0.091211 6.04227 21.296 16.4036 0 -1 0
385 22 3 0.033922 6.51316 21.4714 10.1988 0 -1 0
386 22 3 0.033922 6.26455 -0.246997 10.2168 0 0 0
387 22 3 0.033922 4.95085 22.1956 10.6219 0 -1 0
388 22 3 0.046089 7.44246 22.388 12.2153 0 -1 0
389 22 3 0.046089 5.93391 -0.396873 12.6963 0 0 0
390 22 4 0.121889 5.87427 20.0143 12.0841 0 -1 0
391 22 4 0.121889 5.21497 19.7088 14.1322 0 -1 0
392 22 3 0.046089 5.03447 22.4582 15.0612 0 -1 0
393 22 3 0.046089 6.80831 22.2821 14.7833 0 -1 0
394 22 3 0.033922 5.17679 20.6539 16.5915 0 -1 0
395 22 3 0.033922 6.92087 20.6452 16.4379 0 -1 0
396 22 3 0.033922 6.14687 22.0602 17.1793 0 -1 0
397 23 1 -0.091211 2.63097 7.28544 1.09372 0 0 0
398 23 1 -0.050311 4.02403 7.79613 1.34091 0 0 0
399 23 2 -0.174311 3.98875 8.45767 2.72838 0 0 0
400 23 2 -0.174311 5.15877 8.66779 3.50244 0 0 0
401 23 1 -0.050311 6.57116 8.61893 2.92387 0 0 0
402 23 1 -0.091211 7.26819 9.86974 3.35674 0 0 0
403 23 3 0.033922 2.58331 6.54733 0.287735 0 0 0
404 23 3 0.033922 2.06004 8.19347 0.87876 0 0 0
405 23 3 0.033922 2.11624 6.84598 1.95314 0 0 0
406 23 3 0.046089 4.71951 6.9533 1.39226 0 0 0
407 23 3 0.046089 4.40639 8.49848 0.594458 0 0 0
408 23 4 0.121889 3.08419 8.81046 3.21355 0 0 0
409 23 4 0.121889 4.98862 8.98618 4.52603 0 0 0
410 23 3 0.046089 6.58327 8.60759 1.83008 0 0 0
411 23 3 0.046089 7.16647 7.73017 3.15281 0 0 0
412 23 3 0.033922 8.16405 9.98781 2.74016 0 0 0
413 23 3 0.033922 6.60096 10.7159 3.16824 0 0 0
414 23 3 0.033922 7.5251 9.78942 4.41703 0 0 0
415 24 1 -0.091211 4.22082 16.4419 -0.291214 0 0 0
416 24 1 -0.050311 5.20086 15.7332 0.576246 0 0 0
417 24 2 -0.174311 6.58855 16.4588 0.429571 0 0 0
418 24 2 -0.174311 7.83083 15.8404 0.39109 0 0 0
419 24 1 -0.050311 8.08533 14.3956 0.818418 0 0 0
420 24 1 -0.091211 9.21688 14.2059 1.82955 0 0 0
421 24 3 0.033922 4.06299 17.5122 -0.129664 0 0 0
422 24 3 0.033922 3.31078 15.8588 -0.122298 0 0 0
423 24 3 0.033922 4.46821 16.2819 20.7508 0 0 -1
424 24 3 0.046089 4.78698 15.8515 1.58192 0 0 0
425 24 3 0.046089 5.2309 14.6508 0.42074 0 0 0
426 24 4 0.121889 6.50021 17.523 0.234879 0 0 0
427 24 4 0.121889 8.77095 16.2973 0.0986552 0 0 0
428 24 3 0.046089 8.32812 13.9781 -0.16312 0 0 0
429 24 3 0.046089 7.23246 13.8345 1.21156 0 0 0
430 24 3 0.033922 8.94642 14.639 2.79698 0 0 0
431 24 3 0.033922 9.35733 13.1216 1.86536 0 0 0
432 24 3 0.033922 10.1288 14.6832 1.4591 0 0 0
433 25 1 -0.091211 7.87051 9.22153 14.3855 0 0 0
434 25 1 -0.050311 7.17942 7.95362 14.0403 0 0 0
435 25 2 -0.174311 7.66752 7.53625 12.6551 0 0 0
436 25 2 -0.174311 7.8721 6.24569 12.2243 0 0 0
437 25 1 -0.050311 7.78136 5.10545 13.1595 0 0 0
438 25 1 -0.091211 7.30339 3.78788 12.4721 0 0 0
439 25 3 0.033922 7.62904 9.6455 15.3646 0 0 0
440 25 3 0.033922 7.52578 9.96889 13.6649 0 0 0
441 25 3 0.033922 8.95014 9.04562 14.3987 0 0 0
442 25 3 0.046089 7.38632 7.18679 14.7925 0 0 0
443 25 3 0.046089 6.10148 8.12436 13.9654 0 0 0
444 25 4 0.121889 7.8963 8.25905 11.8784 0 0 0
445 25 4 0.121889 8.18553 5.87025 11.2554 0 0 0
446 25 3 0.046089 7.07266 5.43293 13.9258 0 0 0
447 25 3 0.046089 8.75621 4.88316 13.6033 0 0 0
448 25 3 0.033922 8.01339 3.48853 11.6956 0 0 0
449 25 3 0.033922 7.09965 2.99201 13.1945 0 0 0
450 25 3 0.033922 6.33571 3.98883 12.0032 0 0 0
451 26 1 -0.091211 1.88639 18.1798 9.74236 0 -1 0
452 26 1 -0.050311 0.969473 18.7342 10.8562 0 -1 0
453 26 2 -0.174311 1.69596 18.8011 12.1769 0 -1 0
454 26 2 -0.174311 2.189 19.9385 12.6671 0 -1 0
455 26 1 -0.050311 2.35478 21.285 11.9418 0 -1 0
456 26 1 -0.091211 1.10206 22.1377 12.0388 0 -1 0
457 26 3 0.033922 2.52044 19.0098 9.41714 0 -1 0
458 26 3 0.033922 1.32817 17.8004 8.8815 0 -1 0
459 26 3 0.033922 2.50646 17.3676 10.1329 0 -1 0
460 26 3 0.046089 0.644988 19.7305 10.5422 0 -1 0
461 26 3 0.046089 0.0905909 18.0978 10.9951 0 -1 0
462 26 4 0.121889 1.67871 17.9948 12.9033 0 -1 0
463 26 4 0.121889 2.43536 19.7918 13.7139 0 -1 0
464 26 3 0.046089 2.66532 21.1351 10.9036 0 -1 0
465 26 3 0.046089 3.17205 21.8243 12.4296 0 -1 0
466 26 3 0.033922 1.27737 -0.345899 11.6806 0 0 0
467 26 3 0.033922 0.246581 21.6335 11.5798 0 -1 0
468 26 3 0.033922 0.814376 22.2355 13.0897 0 -1 0
469 27 1 -0.091211 21.0807 12.3069 6.81801 0 0 0
470 27 1 -0.050311 21.2268 13.2844 5.60772 0 0 0
471 27 2 -0.174311 19.8329 13.5479 5.06558 0 0 0
472 27 2 -0.174311 19.4007 13.2923 3.74933 0 0 0
473 27 1 -0.050311 20.2568 12.7795 2.59662 0 0 0
474 27 1 -0.091211 19.977 11.3196 2.37718 0 0 0
475 27 3 0.033922 22.0621 11.8757 7.03619 0 0 0
476 27 3 0.033922 20.4213 11.485 6.52388 0 0 0
477 27 3 0.033922 20.6972 12.737 7.74785 0 0 0
478 27 3 0.046089 21.7888 14.1559 5.95594 0 0 0
479 27 3 0.046089 21.8166 12.8346 4.80376 0 0 0
480 27 4 0.121889 19.0192 13.7732 5.74766 0 0 0
481 27 4 0.121889 18.3341 13.4558 3.63147 0 0 0
482 27 3 0.046089 21.315 12.8215 2.87048 0 0 0
483 27 3 0.046089 20.1333 13.4023 1.70578 0 0 0
484 27 3 0.033922 19.7398 10.7317 3.26866 0 0 0
485 27 3 0.033922 19.1547 11.1253 1.68239 0 0 0
486 27 3 0.033922 20.8871 10.8239 2.027 0 0 0
487 28 1 -0.091211 8.26453 20.4425 20.5393 0 -1 -1
488 28 1 -0.050311 6.8402 20.9491 21.025 0 -1 -1
489 28 2 -0.174311 6.38537 22.1087 20.1469 0 -1 -1
490 28 2 -0.174311 5.13 22.503 20.0674 0 -1 -1
491 28 1 -0.050311 3.9482 21.9496 20.8828 0 -1 -1
492 28 1 -0.091211 3.54931 -0.693336 0.00739289 0 0 0
493 28 3 0.033922 9.03943 21.1753 20.7826 0 -1 -1
494 28 3 0.033922 8.20588 20.3162 19.4542 0 -1 -1
495 28 3 0.033922 8.55446 19.5049 21.0226 0 -1 -1
496 28 3 0.046089 6.23686 20.0366 21.0343 0 -1 -1
497 28 3 0.046089 6.91525 21.3103 -0.0407455 0 -1 0
498 28 4 0.121889 7.14068 22.4288 19.4362 0 -1 -1
499 28 4 0.121889 4.95251 -0.258591 19.294 0 0 -1
500 28 3 0.046089 4.08166 20.9479 21.3017 0 -1 -1
501 28 3 0.046089 3.0893 21.8928 20.2077 0 -1 -1
502 28 3 0.033922 2.88974 22.2352 0.665033 0 -1 0
503 28 3 0.033922 4.44171 -0.477487 0.602127 0 0 0
504 28 3 0.033922 2.99726 0.218407 -0.238898 0 0 0
505 29 1 -0.091211 7.33419 -0.158173 2.85562 0 0 0
506 29 1 -0.050311 8.22136 1.05097 2.40798 0 0 0
507 29 2 -0.174311 7.33834 2.00742 1.69589 0 0 0
508 29 2 -0.174311 6.84029 3.16135 2.19778 0 0 0
509 29 1 -0.050311 7.22867 3.76762 3.50462 0 0 0
510 29 1 -0.091211 8.44505 4.67248 3.31907 0 0 0
511 29 3 0.033922 6.79137 -0.598312 2.01401 0 0 0
512 29 3 0.033922 6.51315 0.089789 3.53466 0 0 0
513 29 3 0.033922 7.91767 -1.00645 3.22531 0 0 0
514 29 3 0.046089 8.74692 1.47315 3.26951 0 0 0
515 29 3 0.046089 8.91662 0.700033 1.63977 0 0 0
516 29 4 0.121889 7.06927 1.7307 0.681451 0 0 0
517 29 4 0.121889 6.21612 3.81471 1.59644 0 0 0
518 29 3 0.046089 7.39757 3.03464 4.29891 0 0 0
519 29 3 0.046089 6.36034 4.40079 3.7091 0 0 0
520 29 3 0.033922 9.42424 4.20125 3.1932 0 0 0
521 29 3 0.033922 8.21095 5.34416 2.48798 0 0 0
522 29 3 0.033922 8.57578 5.32128 4.19006 0 0 0
523 30 1 -0.091211 14.3629 18.6357 2.77455 0 0 1
524 30 1 -0.050311 13.0647 18.6164 3.52869 0 0 1
525 30 2 -0.174311 12.3225 19.8504 3.16573 0 0 1
526 30 2 -0.174311 11.0316 19.9325 2.6832 0 0 1
527 30 1 -0.050311 10.143 18.7247 2.62439 0 0 1
528 30 1 -0.091211 8.64634 18.9938 2.58825 0 0 1
529 30 3 0.033922 15.046 17.8044 2.97215 0 0 1
530 30 3 0.033922 14.8003 19.6132 2.99781 0 0 1
531 30 3 0.033922 14.0623 18.5703 1.72477 0 0 1
532 30 3 0.046089 12.6081 17.6915 3.16429 0 0 1
533 30 3 0.046089 13.1409 18.4598 4.60865 0 0 1
534 30 4 0.121889 12.8606 20.7923 3.13061 0 0 1
535 30 4 0.121889 10.6438 20.8599 2.27382 0 0 1
536 30 3 0.046089 10.3714 18.0498 3.45447 0 0 1
537 30 3 0.046089 10.4392 18.1542 1.73928 0 0 1
538 30 3 0.033922 8.47423 19.892 1.98801 0 0 1
539 30 3 0.033922 8.04011 18.1523 2.24018 0 0 1
540 30 3 0.033922 8.29693 19.1475 3.6134 0 0 1
541 31 1 -0.091211 19.3299 2.11191 18.2724 0 1 0
542 31 1 -0.050311 19.2125 1.12572 19.4686 0 1 0
543 31 2 -0.174311 18.9673 1.86801 20.73 0 1 0
544 31 2 -0.174311 19.486 1.67687 -0.122298 0 1 1
545 31 1 -0.050311 20.252 0.400786 0.195501 0 1 1
546 31 1 -0.091211 21.6679 0.779387 0.623156 0 1 1
547 31 3 0.033922 18.4948 2.81834 18.2564 0 1 0
548 31 3 0.033922 19.3911 1.57519 17.3212 0 1 0
549 31 3 0.033922 20.1536 2.83028 18.3202 0 1 0
550 31 3 0.046089 18.3913 0.407574 19.3881 0 1 0
551 31 3 0.046089 20.0806 0.472926 19.599 0 1 0
552 31 4 0.121889 18.3508 2.75529 20.6262 0 1 0
553 31 4 0.121889 19.1624 2.26475 0.730778 0 1 1
554 31 3 0.046089 20.3123 -0.307825 21.4598 0 1 0
555 31 3 0.046089 19.8148 -0.104193 1.06187 0 1 1
556 31 3 0.033922 22.179 1.29921 -0.192455 0 1 1
557 31 3 0.033922 21.6287 1.35242 1.55416 0 1 1
558 31 3 0.033922 22.2796 -0.100684 0.842301 0 1 1
559 32 1 -0.091211 15.5865 3.12959 0.61391 0 1 0
560 32 1 -0.050311 15.488 1.98512 1.68305 0 1 0
561 32 2 -0.174311 15.7001 0.649487 1.10628 0 1 0
562 32 2 -0.174311 16.0426 -0.548223 1.73297 0 1 0
563 32 1 -0.050311 16.2395 -0.788237 3.20511 0 1 0
564 32 1 -0.091211 17.5074 21.9324 3.43649 0 0 0
565 32 3 0.033922 15.5 4.14111 1.02138 0 1 0
566 32 3 0.033922 14.8036 3.04828 -0.145776 0 1 0
567 32 3 0.033922 16.5463 3.18819 0.0923272 0 1 0
568 32 3 0.046089 16.1554 2.23867 2.51182 0 1 0
569 32 3 0.046089 14.484 1.94279 2.11555 0 1 0
570 32 4 0.121889 15.5763 0.60592 0.0288669 0 1 0
571 32 4 0.121889 16.2713 22.1289 1.06592 0 0 0
572 32 3 0.046089 15.3783 22.1604 3.59047 0 0 0
573 32 3 0.046089 16.1802 0.177262 3.71597 0 1 0
574 32 3 0.033922 17.5741 21.7082 4.50512 0 0 0
575 32 3 0.033922 17.5053 21.0357 2.80987 0 0 0
576 32 3 0.033922 18.3794 22.5268 3.14847 0 0 0
577 33 1 -0.091211 12.3807 13.3669 11.5159 0 0 0
578 33 1 -0.050311 12.0798 14.2993 12.6539 0 0 0
579 33 2 -0.174311 13.347 14.4976 13.5115 0 0 0
580 33 2 -0.174311 13.5425 15.3988 14.4695 0 0 0
581 33 1 -0.050311 12.4705 16.4293 14.8348 0 0 0
582 33 1 -0.091211 12.8601 16.9852 16.2249 0 0 0
583 33 3 0.033922 12.7872 12.4443 11.9404 0 0 0
584 33 3 0.033922 13.1251 13.7108 10.7919 0 0 0
585 33 3 0.033922 11.4566 13.3252 10.9321 0 0 0
586 33 3 0.046089 11.6825 15.2487 12.2831 0 0 0
587 33 3 0.046089 11.3019 13.8773 13.2968 0 0 0
588 33 4 0.121889 14.195 13.8418 13.3411 0 0 0
589 33 4 0.121889 14.4135 15.2328 15.0956 0 0 0
590 33 3 0.046089 11.4731 15.9813 14.8005 0 0 0
591 33 3 0.046089 12.3521 17.1841 14.0519 0 0 0
592 33 3 0.033922 13.6965 17.6834 16.1258 0 0 0
593 33 3 0.033922 11.9995 17.4788 16.6859 0 0 0
594 33 3 0.033922 13.2116 16.1188 16.7928 0 0 0
595 34 1 -0.091211 22.2349 11.9321 15.9473 0 0 0
596 34 1 -0.050311 21.2958 12.3678 14.8389 0 0 0
597 34 2 -0.174311 21.4994 13.7653 14.4022 0 0 0
598 34 2 -0.174311 21.0943 14.2899 13.2052 0 0 0
599 34 1 -0.050311 20.4807 13.4855 12.1984 0 0 0
600 34 1 -0.091211 20.2475 14.2847 10.8424 0 0 0
601 34 3 0.033922 23.2718 12.1263 15.6576 0 0 0
602 34 3 0.033922 22.1892 10.8442 16.0523 0 0 0
603 34 3 0.033922 21.9859 12.4461 16.8803 0 0 0
604 34 3 0.046089 21.5588 11.8229 13.9276 0 0 0
605 34 3 0.046089 20.2488 12.1297 15.0484 0 0 0
606 34 4 0.121889 22.1571 14.4028 14.9845 0 0 0
607 34 4 0.121889 21.1814 15.3551 13.0157 0 0 0
608 34 3 0.046089 19.5491 13.0727 12.5965 0 0 0
609 34 3 0.046089 21.0047 12.5357 12.0573 0 0 0
610 34 3 0.033922 21.1124 14.8023 10.4172 0 0 0
611 34 3 0.033922 19.9474 13.5656 10.0747 0 0 0
612 34 3 0.033922 19.5021 15.0708 10.9944 0 0 0
613 35 1 -0.091211 37.1976 14.4265 11.1972 -1 0 0
614 35 1 -0.050311 36.7235 13.2686 12.1056 -1 0 0
615 35 2 -0.174311 35.1593 13.2544 12.1509 -1 0 0
616 35 2 -0.174311 34.3767 12.2079 12.5908 -1 0 0