ITEM: TIMESTEP
40500
ITEM: NUMBER OF ATOMS
1800
ITEM: BOX BOUNDS pp pp pp
-6.1849922726255713e-01 3.9426514727262521e+01
-9.8359402492968506e-01 2.2592249524930246e+01
-4.3826416777052835e-01 2.1691997667770515e+01
ITEM: ATOMS id mol type q x y z ix iy iz
1 1 1 -0.091211 3.962 17.5557 6.7146 0 -1 0
2 1 1 -0.050311 4.97009 18.5158 7.39702 0 -1 0
3 1 2 -0.174311 4.64215 20.0263 7.35799 0 -1 0
4 1 2 -0.174311 5.6165 20.9803 7.37946 0 -1 0
5 1 1 -0.050311 7.07817 20.7229 7.66219 0 -1 0
6 1 1 -0.091211 7.92729 20.6177 6.42007 0 -1 0
7 1 3 0.033922 2.99591 17.7229 7.1998 0 -1 0
8 1 3 0.033922 4.15533 16.4791 6.701 0 -1 0
9 1 3 0.033922 3.8179 17.8779 5.67918 0 -1 0
10 1 3 0.046089 5.17981 18.2694 8.44198 0 -1 0
11 1 3 0.046089 5.94628 18.3367 6.93696 0 -1 0
12 1 4 0.121889 3.62519 20.3941 7.26531 0 -1 0
13 1 4 0.121889 5.3124 22.0147 7.25432 0 -1 0
14 1 3 0.046089 7.12326 19.8016 8.2502 0 -1 0
15 1 3 0.046089 7.5308 21.4242 8.36935 0 -1 0
16 1 3 0.033922 8.63891 21.4441 6.50629 0 -1 0
17 1 3 0.033922 8.37097 19.6228 6.31996 0 -1 0
18 1 3 0.033922 7.38207 20.7133 5.47653 0 -1 0
19 2 1 -0.091211 5.69749 4.66682 17.4801 0 0 0
20 2 1 -0.050311 6.85763 3.74538 17.9496 0 0 0
21 2 2 -0.174311 6.73349 2.36016 17.4025 0 0 0
22 2 2 -0.174311 7.78541 1.64329 16.7869 0 0 0
23 2 1 -0.050311 9.06416 2.21553 16.3718 0 0 0
24 2 1 -0.091211 9.66284 1.29732 15.2318 0 0 0
25 2 3 0.033922 4.77799 4.15774 17.7835 0 0 0
26 2 3 0.033922 5.63801 4.7729 16.393 0 0 0
27 2 3 0.033922 5.68189 5.70269 17.8314 0 0 0
28 2 3 0.046089 7.83287 4.20384 17.7613 0 0 0
29 2 3 0.046089 6.85436 3.64975 19.0393 0 0 0
30 2 4 0.121889 5.77954 1.85237 17.5037 0 0 0
31 2 4 0.121889 7.63233 0.59413 16.5548 0 0 0
32 2 3 0.046089 9.78767 2.4178 17.167 0 0 0
33 2 3 0.046089 8.86199 3.20331 15.9474 0 0 0
34 2 3 0.033922 10.5863 1.63085 14.7493 0 0 0
35 2 3 0.033922 9.8675 0.271177 15.5509 0 0 0
36 2 3 0.033922 8.95256 1.16039 14.4112 0 0 0
37 3 1 -0.091211 8.29366 6.89505 6.90576 0 0 0
38 3 1 -0.050311 7.53652 7.28633 8.19378 0 0 0
39 3 2 -0.174311 6.76919 6.10206 8.63918 0 0 0
40 3 2 -0.174311 5.75241 6.17905 9.56988 0 0 0
41 3 1 -0.050311 5.35026 7.50395 10.2449 0 0 0
42 3 1 -0.091211 4.44591 7.19628 11.4567 0 0 0
43 3 3 0.033922 8.81909 5.95347 7.09027 0 0 0
44 3 3 0.033922 9.03589 7.67846 6.72673 0 0 0
45 3 3 0.033922 7.68159 6.74647 6.01135 0 0 0
46 3 3 0.046089 8.25928 7.5995 8.95288 0 0 0
47 3 3 0.046089 6.85389 8.04085 7.79201 0 0 0
48 3 4 0.121889 6.8424 5.11051 8.20382 0 0 0
49 3 4 0.121889 5.22395 5.2883 9.89448 0 0 0
50 3 3 0.046089 4.77698 8.11937 9.54541 0 0 0
51 3 3 0.046089 6.18743 8.05617 10.6818 0 0 0
52 3 3 0.033922 4.30529 8.04573 12.1315 0 0 0
53 3 3 0.033922 3.48801 6.8605 11.0488 0 0 0
54 3 3 0.033922 4.83179 6.38593 12.0821 0 0 0
55 4 1 -0.091211 4.13142 2.21923 9.66622 0 0 0
56 4 1 -0.050311 3.88151 1.46961 8.40558 0 0 0
57 4 2 -0.174311 5.0667 1.46039 7.53755 0 0 0
58 4 2 -0.174311 5.07553 1.39094 6.16738 0 0 0
59 4 1 -0.050311 3.82001 1.24601 5.32751 0 0 0
60 4 1 -0.091211 4.17166 1.71606 3.94785 0 0 0
61 4 3 0.033922 3.32454 2.18628 10.4041 0 0 0
62 4 3 0.033922 4.35028 3.2699 9.45437 0 0 0
63 4 3 0.033922 4.95138 1.64505 10.1075 0 0 0
64 4 3 0.046089 3.55895 0.435092 8.55534 0 0 0
65 4 3 0.046089 3.05451 1.99866 7.92301 0 0 0
66 4 4 0.121889 5.98859 1.43354 8.10981 0 0 0
67 4 4 0.121889 6.08852 1.41306 5.7782 0 0 0
68 4 3 0.046089 3.00363 1.82076 5.7746 0 0 0
69 4 3 0.046089 3.55581 0.186162 5.38757 0 0 0
70 4 3 0.033922 3.38335 1.70212 3.18953 0 0 0
71 4 3 0.033922 4.52845 2.74096 4.08563 0 0 0
72 4 3 0.033922 5.04778 1.18134 3.56944 0 0 0
73 5 1 -0.091211 -0.563418 0.797233 3.49323 0 0 0
74 5 1 -0.050311 38.9972 2.01597 2.79201 -1 0 0
75 5 2 -0.174311 -0.12733 3.22656 2.9518 0 0 0
76 5 2 -0.174311 -0.548731 4.56434 2.93979 0 0 0
77 5 1 -0.050311 38.0592 5.05108 2.57134 -1 0 0
78 5 1 -0.091211 37.578 5.78202 3.79094 -1 0 0
79 5 3 0.033922 38.8607 -0.0881478 3.32796 -1 0 0
80 5 3 0.033922 -0.487798 0.848745 4.58331 0 0 0
81 5 3 0.033922 0.404044 0.572747 3.03461 0 0 0
82 5 3 0.046089 38.8815 1.81153 1.72361 -1 0 0
83 5 3 0.046089 38.0187 2.3258 3.17053 -1 0 0
84 5 4 0.121889 0.944538 3.09838 3.06482 0 0 0
85 5 4 0.121889 0.145783 5.39031 3.05604 0 0 0
86 5 3 0.046089 37.3402 4.2763 2.28945 -1 0 0
87 5 3 0.046089 38.1064 5.73305 1.71731 -1 0 0
88 5 3 0.033922 36.73 6.42961 3.54989 -1 0 0
89 5 3 0.033922 37.126 5.11867 4.5341 -1 0 0
90 5 3 0.033922 38.2793 6.39198 4.36784 -1 0 0
91 6 1 -0.091211 11.3352 1.45932 19.4845 0 0 0
92 6 1 -0.050311 10.9127 2.84715 19.8797 0 0 0
93 6 2 -0.174311 10.5489 2.88882 21.3747 0 0 0
94 6 2 -0.174311 10.0351 3.92377 0.00304584 0 0 1
95 6 1 -0.050311 9.73171 5.28382 21.5934 0 0 0
96 6 1 -0.091211 8.27555 5.47781 21.4991 0 0 0
97 6 3 0.033922 10.4478 0.845498 19.6646 0 0 0
98 6 3 0.033922 12.1265 1.03947 20.1124 0 0 0
99 6 3 0.033922 11.8191 1.39301 18.5057 0 0 0
100 6 3 0.046089 11.6883 3.59334 19.6837 0 0 0
101 6 3 0.046089 10.0132 3.16851 19.3465 0 0 0
102 6 4 0.121889 10.7949 2.01018 -0.167701 0 0 1
103 6 4 0.121889 9.81122 3.82415 1.06039 0 0 1
104 6 3 0.046089 10.237 5.30775 20.6235 0 0 0
105 6 3 0.046089 10.106 6.06592 0.130159 0 0 1
106 6 3 0.033922 7.92646 6.50208 21.3387 0 0 0
107 6 3 0.033922 7.82673 5.01122 20.6173 0 0 0
108 6 3 0.033922 7.79983 5.14031 0.294236 0 0 1
109 7 1 -0.091211 33.7793 15.7729 7.22563 -1 0 0
110 7 1 -0.050311 35.1913 15.8725 6.79817 -1 0 0
111 7 2 -0.174311 35.9273 16.6702 7.91852 -1 0 0
112 7 2 -0.174311 36.9535 17.5791 7.69879 -1 0 0
113 7 1 -0.050311 37.452 17.9526 6.29093 -1 0 0
114 7 1 -0.091211 38.8171 18.6724 6.34376 -1 0 0
115 7 3 0.033922 33.2483 16.7275 7.28459 -1 0 0
116 7 3 0.033922 33.7575 15.3744 8.24412 -1 0 0
117 7 3 0.033922 33.2419 15.1113 6.53998 -1 0 0
118 7 3 0.046089 35.6137 14.871 6.67461 -1 0 0
119 7 3 0.046089 35.2353 16.4593 5.87595 -1 0 0
120 7 4 0.121889 35.7833 16.4365 8.96859 -1 0 0
121 7 4 0.121889 37.541 17.9395 8.53722 -1 0 0
122 7 3 0.046089 36.6985 18.5859 5.81362 -1 0 0
123 7 3 0.046089 37.5556 17.0669 5.65726 -1 0 0
124 7 3 0.033922 -0.450454 17.9097 6.44606 0 0 0
125 7 3 0.033922 39.0547 19.22 5.42703 -1 0 0
126 7 3 0.033922 38.9399 19.3073 7.22608 -1 0 0
127 8 1 -0.091211 0.818863 9.46071 20.2527 0 0 0
128 8 1 -0.050311 0.649781 7.95862 20.0994 0 0 0
129 8 2 -0.174311 0.262268 7.51177 18.7337 0 0 0
130 8 2 -0.174311 1.0824 7.20086 17.6296 0 0 0
131 8 1 -0.050311 2.58986 7.39245 17.5838 0 0 0
132 8 1 -0.091211 3.19802 6.89341 16.3057 0 0 0
133 8 3 0.033922 0.832339 9.69703 21.3207 0 0 0
134 8 3 0.033922 -0.0234808 9.98506 19.7921 0 0 0
135 8 3 0.033922 1.80354 9.67986 19.8295 0 0 0
136 8 3 0.046089 1.53394 7.42057 20.4536 0 0 0
137 8 3 0.046089 -0.101375 7.61467 20.8164 0 0 0
138 8 4 0.121889 39.2328 7.50186 18.5805 -1 0 0
139 8 4 0.121889 0.578062 6.91281 16.7127 0 0 0
140 8 3 0.046089 3.0686 6.82901 18.39 0 0 0
141 8 3 0.046089 2.75354 8.4684 17.6944 0 0 0
142 8 3 0.033922 4.27879 7.0597 16.3374 0 0 0
143 8 3 0.033922 3.0506 5.81358 16.2112 0 0 0
144 8 3 0.033922 2.79611 7.34774 15.3954 0 0 0
145 9 1 -0.091211 0.51956 14.5097 20.642 0 0 0
146 9 1 -0.050311 -0.454891 14.744 -0.291988 0 0 1
147 9 2 -0.174311 -0.000764988 15.8986 0.547543 0 0 1
148 9 2 -0.174311 39.2856 16.8788 1.1806 -1 0 1
149 9 1 -0.050311 37.8292 16.918 1.12768 -1 0 1
150 9 1 -0.091211 37.1967 17.6557 2.30041 -1 0 1
151 9 3 0.033922 0.498588 15.3464 19.9377 0 0 0
152 9 3 0.033922 0.327151 13.6153 20.0423 0 0 0
153 9 3 0.033922 1.50393 14.3906 21.1041 0 0 0
154 9 3 0.046089 38.565 14.9283 21.5038 -1 0 0
155 9 3 0.046089 -0.39314 13.862 0.3522 0 0 1
156 9 4 0.121889 1.06206 16.1188 0.549478 0 0 1
157 9 4 0.121889 -0.206701 17.7288 1.56786 0 0 1
158 9 3 0.046089 37.3621 15.929 1.10862 -1 0 1
159 9 3 0.046089 37.5753 17.4302 0.195023 -1 0 1
160 9 3 0.033922 37.6719 18.6325 2.4304 -1 0 1
161 9 3 0.033922 36.1145 17.7622 2.18131 -1 0 1
162 9 3 0.033922 37.4178 17.1662 3.25336 -1 0 1
163 10 1 -0.091211 12.0496 9.29249 11.0944 0 0 1
164 10 1 -0.050311 13.2286 8.43861 10.6472 0 0 1
165 10 2 -0.174311 13.5099 8.67792 9.15607 0 0 1
166 10 2 -0.174311 13.4791 7.6992 8.20449 0 0 1
167 10 1 -0.050311 13.2222 6.26687 8.45765 0 0 1
168 10 1 -0.091211 11.7321 5.8895 8.4877 0 0 1
169 10 3 0.033922 12.4198 10.3141 10.9681 0 0 1
170 10 3 0.033922 11.8317 9.09969 12.1489 0 0 1
171 10 3 0.033922 11.21 8.99469 10.4595 0 0 1
172 10 3 0.046089 14.1406 8.6837 11.1994 0 0 1
173 10 3 0.046089 12.9816 7.41294 10.9364 0 0 1
174 10 4 0.121889 13.7164 9.67594 8.78277 0 0 1
175 10 4 0.121889 13.6819 7.88394 7.15435 0 0 1
176 10 3 0.046089 13.572 6.00153 9.45962 0 0 1
177 10 3 0.046089 13.8506 5.62835 7.82982 0 0 1
178 10 3 0.033922 11.5627 4.83402 8.71994 0 0 1
179 10 3 0.033922 11.3049 6.44156 9.32997 0 0 1
180 10 3 0.033922 11.1749 6.12619 7.57657 0 0 1
181 11 1 -0.091211 0.139225 15.1413 4.08689 0 0 0
182 11 1 -0.050311 39.2919 14.0052 4.38755 -1 0 0
183 11 2 -0.174311 38.0582 13.9248 3.45614 -1 0 0
184 11 2 -0.174311 36.9122 13.2356 3.76506 -1 0 0
185 11 1 -0.050311 36.6822 12.452 5.02121 -1 0 0
186 11 1 -0.091211 35.49 11.5243 4.74582 -1 0 0
187 11 3 0.033922 0.306821 15.0592 3.00901 0 0 0
188 11 3 0.033922 1.04851 15.1872 4.69335 0 0 0
189 11 3 0.033922 -0.387164 16.0933 4.20227 0 0 0
190 11 3 0.046089 -0.247477 13.0399 4.29079 0 0 0
191 11 3 0.046089 39.0016 14.0193 5.44216 -1 0 0
192 11 4 0.121889 38.1384 14.4705 2.52136 -1 0 0
193 11 4 0.121889 36.2141 13.1062 2.94413 -1 0 0
194 11 3 0.046089 36.4181 13.1708 5.80234 -1 0 0
195 11 3 0.046089 37.5136 11.7621 5.19306 -1 0 0
196 11 3 0.033922 34.6084 12.1045 4.45796 -1 0 0
197 11 3 0.033922 35.6965 10.7852 3.96628 -1 0 0
198 11 3 0.033922 35.1786 10.9649 5.63277 -1 0 0
199 12 1 -0.091211 2.79717 13.1967 1.4339 0 0 0
200 12 1 -0.050311 2.91581 12.4632 2.7355 0 0 0
201 12 2 -0.174311 4.3287 12.6496 3.26511 0 0 0
202 12 2 -0.174311 4.67805 12.5469 4.56515 0 0 0
203 12 1 -0.050311 3.71081 12.3754 5.63293 0 0 0
204 12 1 -0.091211 4.54106 12.5753 6.93871 0 0 0
205 12 3 0.033922 3.4481 12.7585 0.671719 0 0 0
206 12 3 0.033922 3.01569 14.2607 1.56329 0 0 0
207 12 3 0.033922 1.77471 13.0723 1.06536 0 0 0
208 12 3 0.046089 2.1381 12.7099 3.46419 0 0 0
209 12 3 0.046089 2.80337 11.4105 2.46004 0 0 0
210 12 4 0.121889 5.12107 12.8044 2.53969 0 0 0
211 12 4 0.121889 5.73339 12.5393 4.81874 0 0 0
212 12 3 0.046089 3.12954 11.4487 5.62337 0 0 0
213 12 3 0.046089 2.9999 13.2061 5.5976 0 0 0
214 12 3 0.033922 4.94211 13.5875 7.04445 0 0 0
215 12 3 0.033922 3.83506 12.3925 7.75408 0 0 0
216 12 3 0.033922 5.33332 11.8326 7.07089 0 0 0
217 13 1 -0.091211 8.32809 12.2221 9.30499 0 0 0
218 13 1 -0.050311 7.32531 13.2197 9.74881 0 0 0
219 13 2 -0.174311 7.85141 14.0533 10.8928 0 0 0
220 13 2 -0.174311 7.10094 14.8305 11.7145 0 0 0
221 13 1 -0.050311 5.61666 15.0695 11.56 0 0 0
222 13 1 -0.091211 5.3509 16.5333 11.8887 0 0 0
223 13 3 0.033922 8.45547 11.5188 10.1331 0 0 0
224 13 3 0.033922 9.27742 12.6517 8.97193 0 0 0
225 13 3 0.033922 8.00388 11.7157 8.39115 0 0 0
226 13 3 0.046089 7.07838 13.7988 8.8542 0 0 0
227 13 3 0.046089 6.44221 12.6552 10.062 0 0 0
228 13 4 0.121889 8.9327 14.0709 10.9856 0 0 0
229 13 4 0.121889 7.63173 15.4263 12.4502 0 0 0
230 13 3 0.046089 5.10189 14.4908 12.3325 0 0 0
231 13 3 0.046089 5.32184 14.7831 10.5462 0 0 0
232 13 3 0.033922 5.03008 16.6889 12.9229 0 0 0
233 13 3 0.033922 6.31739 17.0381 11.8003 0 0 0
234 13 3 0.033922 4.50951 16.9254 11.3099 0 0 0
235 14 1 -0.091211 13.1766 5.04378 12.2041 0 0 0
236 14 1 -0.050311 13.3032 5.54343 13.6132 0 0 0
237 14 2 -0.174311 12.3561 4.79779 14.5541 0 0 0
238 14 2 -0.174311 11.7403 5.23114 15.6662 0 0 0
239 14 1 -0.050311 11.8648 6.63374 16.1503 0 0 0
240 14 1 -0.091211 10.7248 7.09318 17.1161 0 0 0
241 14 3 0.033922 12.2546 5.29378 11.6712 0 0 0
242 14 3 0.033922 13.2198 3.95513 12.3025 0 0 0
243 14 3 0.033922 13.9561 5.39304 11.5206 0 0 0
244 14 3 0.046089 14.3104 5.44629 14.0287 0 0 0
245 14 3 0.046089 13.0349 6.59575 13.7449 0 0 0
246 14 4 0.121889 12.025 3.79912 14.2874 0 0 0
247 14 4 0.121889 11.0204 4.67389 16.2572 0 0 0
248 14 3 0.046089 11.8183 7.22973 15.2341 0 0 0
249 14 3 0.046089 12.8194 6.91815 16.6025 0 0 0
250 14 3 0.033922 10.903 8.1431 17.3663 0 0 0
251 14 3 0.033922 9.74546 6.97129 16.6441 0 0 0
252 14 3 0.033922 10.7197 6.62126 18.103 0 0 0
253 15 1 -0.091211 -0.138659 21.7306 15.3878 0 0 0
254 15 1 -0.050311 0.70063 21.2784 16.627 0 0 0
255 15 2 -0.174311 0.247451 19.8991 17.0723 0 0 0
256 15 2 -0.174311 1.14538 18.9947 17.6463 0 0 0
257 15 1 -0.050311 2.45366 19.2489 18.2539 0 0 0
258 15 1 -0.091211 3.39613 18.4413 17.3653 0 0 0
259 15 3 0.033922 -0.0989833 20.9761 14.5967 0 0 0
260 15 3 0.033922 0.298767 -0.916672 15.0095 0 1 0
261 15 3 0.033922 38.9107 21.982 15.7647 -1 0 0
262 15 3 0.046089 1.77801 21.2024 16.4532 0 0 0
263 15 3 0.046089 0.642296 21.9794 17.4648 0 0 0
264 15 4 0.121889 39.2488 19.6844 16.8656 -1 0 0
265 15 4 0.121889 0.541327 18.1203 17.8667 0 0 0
266 15 3 0.046089 2.56624 18.9056 19.2865 0 0 0
267 15 3 0.046089 2.76252 20.2879 18.1062 0 0 0
268 15 3 0.033922 3.17696 18.5684 16.3011 0 0 0
269 15 3 0.033922 4.44604 18.6817 17.5567 0 0 0
270 15 3 0.033922 3.19288 17.3859 17.569 0 0 0
271 16 1 -0.091211 12.8668 0.300414 5.43456 0 1 0
272 16 1 -0.050311 11.6585 0.56031 6.27254 0 1 0
273 16 2 -0.174311 10.3082 0.157106 5.60927 0 1 0
274 16 2 -0.174311 9.1111 0.486881 6.15466 0 1 0
275 16 1 -0.050311 8.86452 1.21254 7.46711 0 1 0
276 16 1 -0.091211 8.87474 2.77721 7.27088 0 1 0
277 16 3 0.033922 12.9589 -0.763706 5.19821 0 1 0
278 16 3 0.033922 13.8081 0.612078 5.89661 0 1 0
279 16 3 0.033922 12.7769 0.865472 4.5022 0 1 0
280 16 3 0.046089 11.7152 0.0946916 7.26079 0 1 0
281 16 3 0.046089 11.6641 1.62292 6.53236 0 1 0
282 16 4 0.121889 10.2007 -0.395917 4.68155 0 1 0
283 16 4 0.121889 8.2199 0.125431 5.65146 0 1 0
284 16 3 0.046089 9.62825 0.868193 8.17055 0 1 0
285 16 3 0.046089 7.89796 0.770653 7.72636 0 1 0
286 16 3 0.033922 8.56904 3.25316 8.20719 0 1 0
287 16 3 0.033922 9.78224 3.256 6.89152 0 1 0
288 16 3 0.033922 8.07303 3.13536 6.61844 0 1 0
289 17 1 -0.091211 8.41491 13.037 18.3925 0 0 0
290 17 1 -0.050311 8.62735 14.5091 18.1974 0 0 0
291 17 2 -0.174311 7.63362 14.9003 17.0408 0 0 0
292 17 2 -0.174311 7.7619 14.4282 15.7481 0 0 0
293 17 1 -0.050311 9.08222 13.7092 15.2213 0 0 0
294 17 1 -0.091211 8.62765 12.563 14.4371 0 0 0
295 17 3 0.033922 7.59661 12.8938 19.1043 0 0 0
296 17 3 0.033922 9.25341 12.5704 18.9178 0 0 0
297 17 3 0.033922 8.30346 12.4802 17.4576 0 0 0
298 17 3 0.046089 8.42937 15.1101 19.0898 0 0 0
299 17 3 0.046089 9.66009 14.7268 17.9097 0 0 0
300 17 4 0.121889 6.74518 15.4532 17.329 0 0 0
301 17 4 0.121889 7.02518 14.6435 14.9807 0 0 0
302 17 3 0.046089 9.84576 13.4145 15.9472 0 0 0
303 17 3 0.046089 9.64994 14.3232 14.5161 0 0 0
304 17 3 0.033922 9.49714 12.0492 14.0168 0 0 0
305 17 3 0.033922 8.07696 11.8886 15.0993 0 0 0
306 17 3 0.033922 7.93682 12.8985 13.658 0 0 0
307 18 1 -0.091211 38.2218 9.37875 2.42564 -1 0 1
308 18 1 -0.050311 38.8649 8.8665 3.69413 -1 0 1
309 18 2 -0.174311 -0.185492 9.85836 4.08653 0 0 1
310 18 2 -0.174311 0.178896 10.0979 5.41324 0 0 1
311 18 1 -0.050311 -0.423215 9.44337 6.57564 0 0 1
312 18 1 -0.091211 -0.141731 10.231 7.89423 0 0 1
313 18 3 0.033922 37.4462 8.70461 2.05057 -1 0 1
314 18 3 0.033922 38.978 9.55536 1.65513 -1 0 1
315 18 3 0.033922 37.6864 10.3187 2.5883 -1 0 1
316 18 3 0.046089 38.0926 8.79459 4.46549 -1 0 1
317 18 3 0.046089 39.3074 7.88334 3.50895 -1 0 1
318 18 4 0.121889 0.336301 10.3756 3.28761 0 0 1
319 18 4 0.121889 0.954028 10.806 5.68866 0 0 1
320 18 3 0.046089 0.0986261 8.4825 6.60888 0 0 1
321 18 3 0.046089 38.5454 9.294 6.44996 -1 0 1
322 18 3 0.033922 0.75081 9.89747 8.43164 0 0 1
323 18 3 0.033922 -0.128562 11.3074 7.69929 0 0 1
324 18 3 0.033922 39.0431 9.98475 8.52366 -1 0 1
325 19 1 -0.091211 14.5316 11.0867 21.3232 0 0 -1
326 19 1 -0.050311 14.1603 11.5297 0.635518 0 0 0
327 19 2 -0.174311 15.1902 12.5546 1.08522 0 0 0
328 19 2 -0.174311 15.4878 12.9458 2.39741 0 0 0
329 19 1 -0.050311 14.8116 12.3336 3.64315 0 0 0
330 19 1 -0.091211 15.2782 12.8835 4.88699 0 0 0
331 19 3 0.033922 14.5085 11.9292 20.6258 0 0 -1
332 19 3 0.033922 13.8131 10.3536 20.9449 0 0 -1
333 19 3 0.033922 15.5333 10.6543 21.2435 0 0 -1
334 19 3 0.046089 13.1415 11.928 0.642223 0 0 0
335 19 3 0.046089 14.1509 10.6811 1.3257 0 0 0
336 19 4 0.121889 15.896 12.9475 0.360284 0 0 0
337 19 4 0.121889 16.3623 13.5801 2.50118 0 0 0
338 19 3 0.046089 15.1094 11.281 3.64843 0 0 0
339 19 3 0.046089 13.7258 12.3531 3.51188 0 0 0
340 19 3 0.033922 15.3224 13.9739 4.81083 0 0 0
341 19 3 0.033922 14.6814 12.6179 5.76445 0 0 0
342 19 3 0.033922 16.2958 12.5413 5.09687 0 0 0
343 20 1 -0.091211 13.0481 21.7939 13.268 0 -1 0
344 20 1 -0.050311 13.7153 20.6202 13.9056 0 -1 0
345 20 2 -0.174311 13.6152 19.4027 13.0233 0 -1 0
346 20 2 -0.174311 14.4944 18.3489 12.8233 0 -1 0
347 20 1 -0.050311 15.7856 18.1822 13.5005 0 -1 0
348 20 1 -0.091211 16.9137 18.7914 12.6765 0 -1 0
349 20 3 0.033922 13.2548 21.8852 12.1977 0 -1 0
350 20 3 0.033922 13.261 -0.879315 13.8482 0 0 0
351 20 3 0.033922 11.9682 21.6278 13.3219 0 -1 0
352 20 3 0.046089 14.7575 20.9022 14.0814 0 -1 0
353 20 3 0.046089 13.1947 20.4209 14.8468 0 -1 0
354 20 4 0.121889 12.718 19.449 12.4142 0 -1 0
355 20 4 0.121889 14.2877 17.62 12.0461 0 -1 0
356 20 3 0.046089 15.9939 17.1167 13.6341 0 -1 0
357 20 3 0.046089 15.7149 18.7262 14.4469 0 -1 0
358 20 3 0.033922 16.9945 18.2797 11.713 0 -1 0
359 20 3 0.033922 16.6772 19.8558 12.5887 0 -1 0
360 20 3 0.033922 17.8762 18.715 13.1908 0 -1 0
361 21 1 -0.091211 0.879527 3.54986 12.5679 0 0 0
362 21 1 -0.050311 2.0898 3.97496 13.4069 0 0 0
363 21 2 -0.174311 1.69409 4.02054 14.8446 0 0 0
364 21 2 -0.174311 1.97131 3.09107 15.7916 0 0 0
365 21 1 -0.050311 2.84925 1.83601 15.5899 0 0 0
366 21 1 -0.091211 2.82525 0.93307 16.7919 0 0 0
367 21 3 0.033922 0.523973 2.54921 12.8305 0 0 0
368 21 3 0.033922 1.04757 3.60939 11.4886 0 0 0
369 21 3 0.033922 0.084966 4.2787 12.7527 0 0 0
370 21 3 0.046089 2.99024 3.40142 13.1682 0 0 0
371 21 3 0.046089 2.41708 4.97787 13.1175 0 0 0
372 21 4 0.121889 1.13926 4.8798 15.2078 0 0 0
373 21 4 0.121889 1.72395 3.30163 16.8272 0 0 0
374 21 3 0.046089 3.86532 2.19613 15.4038 0 0 0
375 21 3 0.046089 2.60343 1.2229 14.718 0 0 0
376 21 3 0.033922 1.84227 0.474198 16.933 0 0 0
377 21 3 0.033922 3.5423 0.108654 16.7382 0 0 0
378 21 3 0.033922 3.05413 1.55377 17.6632 0 0 0
379 22 1 -0.091211 5.98668 22.4324 10.9742 0 -1 0
380 22 1 -0.050311 6.84496 21.8904 12.1268 0 -1 0
381 22 2 -0.174311 5.9627 20.802 12.683 0 -1 0
382 22 2 -0.174311 5.43617 20.8453 13.9709 0 -1 0
383 22 1 -0.050311 5.69397 21.9609 15.0106 0 -1 0
384 22 1 -0.091211 5.43959 21.3044 16.3105 0 -1 0
385 22 3 0.033922 5.56048 21.5921 10.4183 0 -1 0
386 22 3 0.033922 6.66594 -0.589893 10.3193 0 0 0
387 22 3 0.033922 5.17821 -0.45516 11.2374 0 0 0
388 22 3 0.046089 7.73735 21.5073 11.6232 0 -1 0
389 22 3 0.046089 7.19729 -0.848519 12.7368 0 0 0
390 22 4 0.121889 5.71666 20.0607 11.9294 0 -1 0
391 22 4 0.121889 4.74691 20.0264 14.151 0 -1 0
392 22 3 0.046089 4.99309 -0.779044 14.9287 0 0 0
393 22 3 0.046089 6.69452 22.3975 14.9398 0 -1 0
394 22 3 0.033922 4.42314 20.906 16.3803 0 -1 0
395 22 3 0.033922 6.13395 20.4901 16.5373 0 -1 0
396 22 3 0.033922 5.59595 22.0714 17.0746 0 -1 0
397 23 1 -0.091211 2.4107 7.14843 1.33142 0 0 0
398 23 1 -0.050311 3.79834 7.51709 1.71187 0 0 0
399 23 2 -0.174311 3.8758 8.53457 2.89787 0 0 0
400 23 2 -0.174311 5.01367 9.08673 3.36612 0 0 0
401 23 1 -0.050311 6.39174 8.78809 2.91 0 0 0
402 23 1 -0.091211 7.0249 10.1015 2.72555 0 0 0
403 23 3 0.033922 2.37148 6.3257 0.611527 0 0 0
404 23 3 0.033922 1.8026 7.98919 0.984966 0 0 0
405 23 3 0.033922 1.90487 6.82841 2.24706 0 0 0
406 23 3 0.046089 4.34556 6.58323 1.87047 0 0 0
407 23 3 0.046089 4.23592 8.04357 0.858633 0 0 0
408 23 4 0.121889 2.93995 9.01608 3.16327 0 0 0
409 23 4 0.121889 4.97053 9.9146 4.06671 0 0 0
410 23 3 0.046089 6.44258 8.24799 1.96007 0 0 0
411 23 3 0.046089 6.9752 8.21481 3.63635 0 0 0
412 23 3 0.033922 8.0641 9.95255 2.41799 0 0 0
413 23 3 0.033922 6.51086 10.5755 1.88431 0 0 0
414 23 3 0.033922 6.94722 10.6786 3.65163 0 0 0
415 24 1 -0.091211 4.28522 16.8998 0.130956 0 0 0
416 24 1 -0.050311 5.44593 16.0867 0.492064 0 0 0
417 24 2 -0.174311 6.7588 16.497 -0.14153 0 0 0
418 24 2 -0.174311 7.9022 15.7777 0.162276 0 0 0
419 24 1 -0.050311 7.91249 14.3951 0.897172 0 0 0
420 24 1 -0.091211 8.67743 14.4748 2.14098 0 0 0
421 24 3 0.033922 4.5549 17.8263 0.646446 0 0 0
422 24 3 0.033922 3.30569 16.5467 0.466414 0 0 0
423 24 3 0.033922 4.2712 17.1507 21.1965 0 0 -1
424 24 3 0.046089 5.55021 15.9643 1.57409 0 0 0
425 24 3 0.046089 5.28379 15.0757 0.10719 0 0 0
426 24 4 0.121889 6.88555 17.4696 21.5239 0 0 -1
427 24 4 0.121889 8.86824 16.2019 -0.0924863 0 0 0
428 24 3 0.046089 8.38595 13.7269 0.171943 0 0 0
429 24 3 0.046089 6.8949 14.0709 1.13405 0 0 0
430 24 3 0.033922 8.4715 15.3304 2.79069 0 0 0
431 24 3 0.033922 8.57284 13.5518 2.71883 0 0 0
432 24 3 0.033922 9.71444 14.5515 1.80122 0 0 0
433 25 1 -0.091211 7.75091 9.06568 14.3566 0 0 0
434 25 1 -0.050311 7.22927 7.66677 14.0684 0 0 0
435 25 2 -0.174311 7.7502 7.24638 12.6528 0 0 0
436 25 2 -0.174311 7.93387 5.92755 12.296 0 0 0
437 25 1 -0.050311 7.54384 4.74366 13.1434 0 0 0
438 25 1 -0.091211 7.10076 3.53878 12.2296 0 0 0
439 25 3 0.033922 7.44646 9.39573 15.3541 0 0 0
440 25 3 0.033922 7.33367 9.74966 13.6118 0 0 0
441 25 3 0.033922 8.84471 9.05475 14.3708 0 0 0
442 25 3 0.046089 7.64364 6.98303 14.815 0 0 0
443 25 3 0.046089 6.13785 7.64515 14.1395 0 0 0
444 25 4 0.121889 8.06389 7.8879 11.8354 0 0 0
445 25 4 0.121889 8.31707 5.69397 11.3078 0 0 0
446 25 3 0.046089 6.74425 5.07519 13.8123 0 0 0
447 25 3 0.046089 8.37278 4.35301 13.7408 0 0 0
448 25 3 0.033922 7.9026 3.19413 11.57 0 0 0
449 25 3 0.033922 6.78859 2.80603 12.9794 0 0 0
450 25 3 0.033922 6.22426 3.76757 11.6163 0 0 0
451 26 1 -0.091211 1.58827 18.1648 9.45523 0 -1 0
452 26 1 -0.050311 0.652513 18.9421 10.4893 0 -1 0
453 26 2 -0.174311 1.2696 18.9246 11.8598 0 -1 0
454 26 2 -0.174311 2.00624 19.9881 12.3314 0 -1 0
455 26 1 -0.050311 2.16974 21.3242 11.6226 0 -1 0
456 26 1 -0.091211 1.07056 22.2405 12.1158 0 -1 0
457 26 3 0.033922 2.49722 18.7464 9.27565 0 -1 0
458 26 3 0.033922 1.1006 17.9992 8.49014 0 -1 0
459 26 3 0.033922 1.89187 17.169 9.79118 0 -1 0
460 26 3 0.046089 0.491871 19.9561 10.1114 0 -1 0
461 26 3 0.046089 -0.309797 18.4278 10.5678 0 -1 0
462 26 4 0.121889 0.985493 18.1333 12.5462 0 -1 0
463 26 4 0.121889 2.24907 19.9698 13.3891 0 -1 0
464 26 3 0.046089 2.16993 21.2288 10.5328 0 -1 0
465 26 3 0.046089 3.14478 21.7504 11.8764 0 -1 0
466 26 3 0.033922 1.09937 -0.340618 11.6616 0 0 0
467 26 3 0.033922 0.0940948 21.7479 12.0908 0 -1 0
468 26 3 0.033922 1.27536 22.4196 13.1753 0 -1 0
469 27 1 -0.091211 21.0268 11.9851 6.97474 0 0 0
470 27 1 -0.050311 21.1 12.7544 5.63247 0 0 0
471 27 2 -0.174311 19.7297 13.0781 5.19571 0 0 0
472 27 2 -0.174311 19.224 13.0504 3.93229 0 0 0
473 27 1 -0.050311 19.8965 12.6091 2.68144 0 0 0
474 27 1 -0.091211 19.9055 11.1001 2.50606 0 0 0
475 27 3 0.033922 21.8945 11.418 7.32416 0 0 0
476 27 3 0.033922 20.2451 11.2219 6.91692 0 0 0
477 27 3 0.033922 20.7573 12.6392 7.80911 0 0 0
478 27 3 0.046089 21.7539 13.6227 5.75581 0 0 0
479 27 3 0.046089 21.617 12.1392 4.89018 0 0 0
480 27 4 0.121889 19.0517 13.4678 5.94834 0 0 0
481 27 4 0.121889 18.1697 13.2748 3.80494 0 0 0
482 27 3 0.046089 20.9507 12.898 2.72565 0 0 0
483 27 3 0.046089 19.4191 13.0548 1.80385 0 0 0
484 27 3 0.033922 20.6846 10.6193 3.10484 0 0 0
485 27 3 0.033922 18.9417 10.7351 2.87309 0 0 0
486 27 3 0.033922 20.1318 10.8504 1.46535 0 0 0
487 28 1 -0.091211 8.21615 20.6376 20.9929 0 -1 -1
488 28 1 -0.050311 6.66079 20.6643 21.0258 0 -1 -1
489 28 2 -0.174311 6.23124 21.8956 20.3775 0 -1 -1
490 28 2 -0.174311 4.96872 22.6025 20.5851 0 -1 -1
491 28 1 -0.050311 3.84065 22.0352 21.2923 0 -1 -1
492 28 1 -0.091211 3.77772 -0.836518 0.496741 0 0 0
493 28 3 0.033922 8.57393 21.045 -0.187277 0 -1 0
494 28 3 0.033922 8.74235 21.1374 20.1744 0 -1 -1
495 28 3 0.033922 8.49951 19.581 21.0054 0 -1 -1
496 28 3 0.046089 6.31245 19.795 20.4605 0 -1 -1
497 28 3 0.046089 6.20881 20.7007 -0.108901 0 -1 0
498 28 4 0.121889 6.90779 22.3839 19.6832 0 -1 -1
499 28 4 0.121889 4.79771 -0.103652 19.9586 0 0 -1
500 28 3 0.046089 4.03461 20.9679 21.4335 0 -1 -1
501 28 3 0.046089 2.94304 22.0924 20.6696 0 -1 -1
502 28 3 0.033922 2.93006 22.4129 1.10636 0 -1 0
503 28 3 0.033922 4.69319 -1.08981 1.03939 0 0 0
504 28 3 0.033922 3.6514 0.240946 0.356011 0 0 0
505 29 1 -0.091211 7.40874 -0.51124 2.94862 0 0 0
506 29 1 -0.050311 8.16985 0.761925 2.55522 0 0 0
507 29 2 -0.174311 7.2982 1.68046 1.69967 0 0 0
508 29 2 -0.174311 6.84049 2.94389 2.02397 0 0 0
509 29 1 -0.050311 7.05755 3.57429 3.40313 0 0 0
510 29 1 -0.091211 8.4074 4.28038 3.38907 0 0 0
511 29 3 0.033922 6.84784 -0.919604 2.10286 0 0 0
512 29 3 0.033922 6.63594 -0.302987 3.69433 0 0 0
513 29 3 0.033922 8.07473 22.2523 3.25415 0 -1 0
514 29 3 0.046089 8.64018 1.18398 3.44815 0 0 0
515 29 3 0.046089 9.02013 0.428053 1.95335 0 0 0
516 29 4 0.121889 6.93936 1.26385 0.763867 0 0 0
517 29 4 0.121889 6.23645 3.45326 1.27982 0 0 0
518 29 3 0.046089 7.01266 2.89198 4.257 0 0 0
519 29 3 0.046089 6.22892 4.27532 3.53968 0 0 0
520 29 3 0.033922 9.21994 3.55359 3.4799 0 0 0
521 29 3 0.033922 8.45185 4.84177 2.45124 0 0 0
522 29 3 0.033922 8.57153 4.98335 4.211 0 0 0
523 30 1 -0.091211 14.3069 19.0921 2.52294 0 0 1
524 30 1 -0.050311 12.9913 18.9518 3.2798 0 0 1
525 30 2 -0.174311 12.1549 20.0459 2.79259 0 0 1
526 30 2 -0.174311 10.8311 19.8688 2.4306 0 0 1
527 30 1 -0.050311 10.1066 18.5049 2.52202 0 0 1
528 30 1 -0.091211 8.59505 18.6813 2.57234 0 0 1
529 30 3 0.033922 14.8591 18.1649 2.70215 0 0 1
530 30 3 0.033922 14.9173 19.9271 2.87905 0 0 1
531 30 3 0.033922 14.2055 19.1576 1.43572 0 0 1
532 30 3 0.046089 12.6337 17.9354 3.09085 0 0 1
533 30 3 0.046089 13.0384 18.9038 4.37164 0 0 1
534 30 4 0.121889 12.569 21.0466 2.72033 0 0 1
535 30 4 0.121889 10.2575 20.687 2.007 0 0 1
536 30 3 0.046089 10.4403 17.9466 3.40157 0 0 1
537 30 3 0.046089 10.4487 17.8654 1.7031 0 0 1
538 30 3 0.033922 8.1734 19.2226 1.72034 0 0 1
539 30 3 0.033922 8.14945 17.6849 2.64584 0 0 1
540 30 3 0.033922 8.26402 19.1587 3.49923 0 0 1
541 31 1 -0.091211 19.12 2.33265 18.1251 0 1 0
542 31 1 -0.050311 19.4221 1.24542 19.2158 0 1 0
543 31 2 -0.174311 18.921 1.72246 20.5524 0 1 0
544 31 2 -0.174311 19.4097 1.36474 -0.360147 0 1 1
545 31 1 -0.050311 20.5814 0.388008 -0.164142 0 1 1
546 31 1 -0.091211 21.776 1.12771 0.504786 0 1 1
547 31 3 0.033922 18.1243 2.7605 18.2745 0 1 0
548 31 3 0.033922 19.2862 1.88939 17.139 0 1 0
549 31 3 0.033922 19.7894 3.18751 18.2584 0 1 0
550 31 3 0.046089 18.9911 0.266855 18.9847 0 1 0
551 31 3 0.046089 20.4978 1.05471 19.2709 0 1 0
552 31 4 0.121889 18.2028 2.53622 20.5601 0 1 0
553 31 4 0.121889 19.09 1.89433 0.531691 0 1 1
554 31 3 0.046089 20.8667 -0.0990648 21.0291 0 1 0
555 31 3 0.046089 20.2589 -0.406247 0.515417 0 1 1
556 31 3 0.033922 22.244 1.8125 -0.208425 0 1 1
557 31 3 0.033922 21.3318 1.5931 1.38952 0 1 1
558 31 3 0.033922 22.5215 0.404223 0.847436 0 1 1
559 32 1 -0.091211 15.7052 2.91567 0.354323 0 1 0
560 32 1 -0.050311 15.8265 1.84363 1.49269 0 1 0
561 32 2 -0.174311 15.6726 0.399573 1.00219 0 1 0
562 32 2 -0.174311 15.7925 -0.76939 1.68467 0 1 0
563 32 1 -0.050311 16.2194 -0.844468 3.17443 0 1 0
564 32 1 -0.091211 17.5561 22.0571 3.29844 0 0 0
565 32 3 0.033922 15.7581 3.91991 0.784913 0 1 0
566 32 3 0.033922 14.7502 2.80715 -0.168012 0 1 0
567 32 3 0.033922 16.5282 2.88163 -0.365522 0 1 0
568 32 3 0.046089 16.7663 2.10816 1.98619 0 1 0
569 32 3 0.046089 15.0464 2.0445 2.23276 0 1 0
570 32 4 0.121889 15.257 0.282654 0.00637982 0 1 0
571 32 4 0.121889 15.5663 21.8954 1.13982 0 0 0
572 32 3 0.046089 15.4055 22.258 3.73139 0 0 0
573 32 3 0.046089 16.2275 0.174472 3.5724 0 1 0
574 32 3 0.033922 17.8062 21.8902 4.35021 0 0 0
575 32 3 0.033922 17.6005 21.1465 2.69388 0 0 0
576 32 3 0.033922 18.3399 -0.888272 2.86844 0 1 0
577 33 1 -0.091211 12.4318 13.2322 11.7315 0 0 0
578 33 1 -0.050311 12.2052 14.026 12.9658 0 0 0
579 33 2 -0.174311 13.4151 14.1983 13.7742 0 0 0
580 33 2 -0.174311 13.5798 15.254 14.6536 0 0 0
581 33 1 -0.050311 12.4036 16.1419 15.0121 0 0 0
582 33 1 -0.091211 12.6438 16.9354 16.2991 0 0 0
583 33 3 0.033922 12.7959 12.2499 12.0462 0 0 0
584 33 3 0.033922 13.2167 13.6857 11.1192 0 0 0
585 33 3 0.033922 11.5629 13.3422 11.076 0 0 0
586 33 3 0.046089 11.7994 15.0099 12.7129 0 0 0
587 33 3 0.046089 11.5101 13.4728 13.6042 0 0 0
588 33 4 0.121889 14.1903 13.4588 13.6002 0 0 0
589 33 4 0.121889 14.4871 15.4309 15.2226 0 0 0
590 33 3 0.046089 11.5252 15.5052 15.153 0 0 0
591 33 3 0.046089 12.0869 16.7336 14.1482 0 0 0
592 33 3 0.033922 13.6477 17.3699 16.3085 0 0 0
593 33 3 0.033922 11.9067 17.7395 16.3814 0 0 0
594 33 3 0.033922 12.5793 16.2361 17.1379 0 0 0
595 34 1 -0.091211 22.6432 11.4389 15.7051 0 0 0
596 34 1 -0.050311 21.4361 11.9177 14.881 0 0 0
597 34 2 -0.174311 21.5314 13.3922 14.4933 0 0 0
598 34 2 -0.174311 21.1946 13.9457 13.3067 0 0 0
599 34 1 -0.050311 20.7102 13.129 12.1148 0 0 0
600 34 1 -0.091211 20.5967 13.9982 10.8627 0 0 0
601 34 3 0.033922 23.5063 11.3084 15.0458 0 0 0
602 34 3 0.033922 22.4853 10.421 16.0735 0 0 0
603 34 3 0.033922 22.9299 12.0978 16.5299 0 0 0
604 34 3 0.046089 21.3996 11.3414 13.9519 0 0 0
605 34 3 0.046089 20.5163 11.6558 15.412 0 0 0
606 34 4 0.121889 21.8217 14.1043 15.2593 0 0 0
607 34 4 0.121889 21.1665 15.0288 13.2412 0 0 0
608 34 3 0.046089 19.6825 12.7628 12.1951 0 0 0
609 34 3 0.046089 21.202 12.1618 11.9758 0 0 0
610 34 3 0.033922 21.6072 14.3488 10.6333 0 0 0
611 34 3 0.033922 20.2689 13.4719 9.96144 0 0 0
612 34 3 0.033922 19.9704 14.8682 11.0809 0 0 0
613 35 1 -0.091211 37.3674 14.6888 11.1766 -1 0 0
614 35 1 -0.050311 36.6838 13.4628 11.866 -1 0 0
615 35 2 -0.174311 35.1671 13.5567 11.9465 -1 0 0
616 35 2 -0.174311 34.3614 12.7334 12.7454 -1 0 0
617 35 1 -0.050311 34.7714 11.4998 13.5483 -1 0 0