ITEM: TIMESTEP
94400
ITEM: NUMBER OF ATOMS
1800
ITEM: BOX BOUNDS pp pp pp
-5.3181618212558170e+00 4.4126177321254602e+01
1.5939163090382600e+00 2.0014739190962175e+01
-6.2862329250868321e-01 2.1882356792507892e+01
ITEM: ATOMS id mol type q x y z ix iy iz
1 1 1 -0.091211 6.47217 7.13808 14.7686 0 -1 0
2 1 1 -0.050311 6.07193 8.66696 14.7955 0 -1 0
3 1 2 -0.174311 6.09732 9.1141 16.227 0 -1 0
4 1 2 -0.174311 4.99352 9.5257 16.9923 0 -1 0
5 1 1 -0.050311 3.52775 9.59054 16.6226 0 -1 0
6 1 1 -0.091211 3.19526 10.886 15.9177 0 -1 0
7 1 3 0.033922 7.37739 6.96585 15.3581 0 -1 0
8 1 3 0.033922 6.55971 6.71067 13.7654 0 -1 0
9 1 3 0.033922 5.68413 6.55188 15.2502 0 -1 0
10 1 3 0.046089 6.81497 9.29912 14.3007 0 -1 0
11 1 3 0.046089 5.09752 8.93616 14.3776 0 -1 0
12 1 4 0.121889 6.9889 9.2209 16.8367 0 -1 0
13 1 4 0.121889 5.25816 9.92083 17.968 0 -1 0
14 1 3 0.046089 2.82173 9.48633 17.4517 0 -1 0
15 1 3 0.046089 3.27705 8.77679 15.9359 0 -1 0
16 1 3 0.033922 2.16322 10.9428 15.5595 0 -1 0
17 1 3 0.033922 3.39078 11.7813 16.515 0 -1 0
18 1 3 0.033922 3.79559 10.9519 15.0056 0 -1 0
19 2 1 -0.091211 5.84934 4.77474 11.2345 0 0 0
20 2 1 -0.050311 5.15557 4.10098 12.3534 0 0 0
21 2 2 -0.174311 4.05041 3.22266 11.8964 0 0 0
22 2 2 -0.174311 3.16888 2.58951 12.6988 0 0 0
23 2 1 -0.050311 3.29142 2.71589 14.2338 0 0 0
24 2 1 -0.091211 2.71509 3.95525 14.8065 0 0 0
25 2 3 0.033922 5.19381 5.15344 10.4449 0 0 0
26 2 3 0.033922 6.56784 4.12548 10.7257 0 0 0
27 2 3 0.033922 6.38677 5.65349 11.6027 0 0 0
28 2 3 0.046089 5.93064 3.59297 12.9346 0 0 0
29 2 3 0.046089 4.78321 4.9477 12.9374 0 0 0
30 2 4 0.121889 3.92051 3.1277 10.823 0 0 0
31 2 4 0.121889 2.34091 1.95931 12.3901 0 0 0
32 2 3 0.046089 4.31951 2.65341 14.6023 0 0 0
33 2 3 0.046089 2.81459 1.83422 14.6718 0 0 0
34 2 3 0.033922 2.42592 3.72149 15.8352 0 0 0
35 2 3 0.033922 3.48203 4.73524 14.8114 0 0 0
36 2 3 0.033922 1.85334 4.2666 14.2089 0 0 0
37 3 1 -0.091211 1.62872 6.93566 18.2823 0 0 0
38 3 1 -0.050311 1.4441 6.66893 19.779 0 0 0
39 3 2 -0.174311 2.37638 5.56709 20.3287 0 0 0
40 3 2 -0.174311 3.52494 5.67608 21.0658 0 0 0
41 3 1 -0.050311 4.21832 6.91686 21.5385 0 0 0
42 3 1 -0.091211 5.02443 6.57726 0.264429 0 0 1
43 3 3 0.033922 2.6414 7.31479 18.1169 0 0 0
44 3 3 0.033922 0.871402 7.63989 17.9258 0 0 0
45 3 3 0.033922 1.51993 6.07047 17.6218 0 0 0
46 3 3 0.046089 1.67292 7.628 20.2527 0 0 0
47 3 3 0.046089 0.38876 6.47011 19.9873 0 0 0
48 3 4 0.121889 2.20272 4.59375 19.881 0 0 0
49 3 4 0.121889 4.16833 4.84456 21.3353 0 0 0
50 3 3 0.046089 3.52327 7.73964 21.7296 0 0 0
51 3 3 0.046089 4.7932 7.33475 20.7069 0 0 0
52 3 3 0.033922 5.20674 7.60632 0.587537 0 0 1
53 3 3 0.033922 4.40874 6.08706 1.02421 0 0 1
54 3 3 0.033922 5.95088 6.02247 0.089726 0 0 1
55 4 1 -0.091211 -4.47273 18.9845 18.4389 0 -1 0
56 4 1 -0.050311 -3.63842 19.6888 17.3345 0 -1 0
57 4 2 -0.174311 -3.09384 18.715 16.3646 0 -1 0
58 4 2 -0.174311 -1.76263 18.5796 16.1376 0 -1 0
59 4 1 -0.050311 -0.680463 19.2135 16.9461 0 -1 0
60 4 1 -0.091211 0.689881 18.5297 16.6765 0 -1 0
61 4 3 0.033922 -5.33821 18.5408 17.9382 0 -1 0
62 4 3 0.033922 -4.86092 19.8146 19.0363 0 -1 0
63 4 3 0.033922 -3.93131 18.2996 19.098 0 -1 0
64 4 3 0.046089 -4.30505 2.01791 16.8987 0 0 0
65 4 3 0.046089 -2.7793 1.77464 17.7837 0 0 0
66 4 4 0.121889 -3.73041 18.0664 15.7713 0 -1 0
67 4 4 0.121889 -1.5294 17.8587 15.3606 0 -1 0
68 4 3 0.046089 -0.83888 19.2076 18.0284 0 -1 0
69 4 3 0.046089 -0.536811 1.7966 16.536 0 0 0
70 4 3 0.033922 0.808422 18.3696 15.6009 0 -1 0
71 4 3 0.033922 1.58198 19.0921 16.9673 0 -1 0
72 4 3 0.033922 0.52814 17.5545 17.1448 0 -1 0
73 5 1 -0.091211 -2.60515 5.45762 9.62691 0 0 0
74 5 1 -0.050311 -2.91717 6.86004 9.38567 0 0 0
75 5 2 -0.174311 -4.45295 7.04618 9.18069 0 0 0
76 5 2 -0.174311 -5.01079 8.24425 8.62658 0 0 0
77 5 1 -0.050311 -4.26257 9.54665 8.31227 0 0 0
78 5 1 -0.091211 -5.22155 10.757 8.51477 0 0 0
79 5 3 0.033922 -3.09185 5.21403 10.5758 0 0 0
80 5 3 0.033922 -1.52793 5.32182 9.76034 0 0 0
81 5 3 0.033922 -2.87236 4.7502 8.83648 0 0 0
82 5 3 0.046089 -2.63904 7.45614 10.2597 0 0 0
83 5 3 0.046089 -2.39225 7.31883 8.54269 0 0 0
84 5 4 0.121889 -5.05167 6.14688 9.28452 0 0 0
85 5 4 0.121889 43.3557 8.16067 8.53039 -1 0 0
86 5 3 0.046089 -3.91269 9.59023 7.27672 0 0 0
87 5 3 0.046089 -3.41834 9.60669 9.00533 0 0 0
88 5 3 0.033922 43.9512 10.8994 9.56483 -1 0 0
89 5 3 0.033922 -4.8721 11.7621 8.2613 0 0 0
90 5 3 0.033922 43.3703 10.5335 7.86668 -1 0 0
91 6 1 -0.091211 6.87517 17.9216 0.363197 0 -1 1
92 6 1 -0.050311 6.50536 18.9752 1.48777 0 -1 1
93 6 2 -0.174311 6.21459 1.95922 0.912406 0 0 1
94 6 2 -0.174311 5.76927 2.92548 1.80959 0 0 1
95 6 1 -0.050311 5.58209 2.68264 3.25461 0 0 1
96 6 1 -0.091211 5.16687 4.00177 3.93811 0 0 1
97 6 3 0.033922 6.82374 16.885 0.708965 0 -1 1
98 6 3 0.033922 7.89249 18.0984 0.00204568 0 -1 1
99 6 3 0.033922 6.18308 18.0308 -0.476891 0 -1 1
100 6 3 0.046089 5.60846 18.5845 1.9773 0 -1 1
101 6 3 0.046089 7.30702 19.0944 2.22248 0 -1 1
102 6 4 0.121889 6.55699 2.1518 -0.0993879 0 0 1
103 6 4 0.121889 5.65426 3.94869 1.46639 0 0 1
104 6 3 0.046089 6.43685 2.26999 3.79843 0 0 1
105 6 3 0.046089 4.7978 1.93394 3.39938 0 0 1
106 6 3 0.033922 5.29826 3.94378 5.02257 0 0 1
107 6 3 0.033922 5.80634 4.8277 3.61326 0 0 1
108 6 3 0.033922 4.13782 4.31958 3.74659 0 0 1
109 7 1 -0.091211 32.5058 4.40358 13.1244 -1 1 -1
110 7 1 -0.050311 33.5296 5.35938 13.7512 -1 1 -1
111 7 2 -0.174311 32.9489 5.9637 14.9458 -1 1 -1
112 7 2 -0.174311 32.6887 7.31402 15.1994 -1 1 -1
113 7 1 -0.050311 33.1662 8.51343 14.352 -1 1 -1
114 7 1 -0.091211 32.9378 9.7124 15.2555 -1 1 -1
115 7 3 0.033922 31.4768 4.658 13.3946 -1 1 -1
116 7 3 0.033922 32.5594 3.39337 13.5406 -1 1 -1
117 7 3 0.033922 32.7117 4.31038 12.0541 -1 1 -1
118 7 3 0.046089 34.4333 4.77398 13.9446 -1 1 -1
119 7 3 0.046089 33.8049 6.14162 13.0378 -1 1 -1
120 7 4 0.121889 32.4603 5.29235 15.6448 -1 1 -1
121 7 4 0.121889 32.2298 7.52519 16.16 -1 1 -1
122 7 3 0.046089 32.5727 8.60786 13.438 -1 1 -1
123 7 3 0.046089 34.209 8.42457 14.0335 -1 1 -1
124 7 3 0.033922 33.3091 9.59413 16.2777 -1 1 -1
125 7 3 0.033922 33.4147 10.5936 14.8165 -1 1 -1
126 7 3 0.033922 31.8727 9.88985 15.4308 -1 1 -1
127 8 1 -0.091211 -3.99556 9.77447 2.00271 0 0 1
128 8 1 -0.050311 -5.01373 10.3675 2.99938 0 0 1
129 8 2 -0.174311 43.0024 10.1584 2.55768 -1 0 1
130 8 2 -0.174311 41.8584 10.0311 3.31773 -1 0 1
131 8 1 -0.050311 41.9088 10.3528 4.80358 -1 0 1
132 8 1 -0.091211 40.7841 11.3213 5.11982 -1 0 1
133 8 3 0.033922 -4.11988 10.2892 1.0455 0 0 1
134 8 3 0.033922 -4.01599 8.68077 2.00172 0 0 1
135 8 3 0.033922 -3.00718 10.0569 2.37682 0 0 1
136 8 3 0.046089 -4.90253 9.7999 3.92786 0 0 1
137 8 3 0.046089 -4.83043 11.4387 3.12454 0 0 1
138 8 4 0.121889 42.8352 10.017 1.49461 -1 0 1
139 8 4 0.121889 40.8767 9.79577 2.91909 -1 0 1
140 8 3 0.046089 42.8503 10.8499 5.05465 -1 0 1
141 8 3 0.046089 41.7827 9.45849 5.42083 -1 0 1
142 8 3 0.033922 40.7663 11.7837 6.11103 -1 0 1
143 8 3 0.033922 40.7791 12.1165 4.36863 -1 0 1
144 8 3 0.033922 39.8514 10.7836 4.92609 -1 0 1
145 9 1 -0.091211 34.6654 4.16859 17.9435 -1 1 0
146 9 1 -0.050311 35.5009 5.25188 18.5624 -1 1 0
147 9 2 -0.174311 35.2183 6.57061 18.0967 -1 1 0
148 9 2 -0.174311 35.5796 7.76139 18.7513 -1 1 0
149 9 1 -0.050311 36.4727 7.82134 19.9879 -1 1 0
150 9 1 -0.091211 37.7102 8.60439 19.6495 -1 1 0
151 9 3 0.033922 33.6236 4.30542 18.248 -1 1 0
152 9 3 0.033922 35.0054 3.21749 18.3635 -1 1 0
153 9 3 0.033922 34.7042 4.03904 16.858 -1 1 0
154 9 3 0.046089 35.401 5.12433 19.6443 -1 1 0
155 9 3 0.046089 36.5489 5.09715 18.2895 -1 1 0
156 9 4 0.121889 34.67 6.69663 17.1686 -1 1 0
157 9 4 0.121889 35.1936 8.68336 18.3282 -1 1 0
158 9 3 0.046089 36.7683 6.80871 20.2774 -1 1 0
159 9 3 0.046089 35.9171 8.26758 20.8179 -1 1 0
160 9 3 0.033922 37.3922 9.51612 19.1354 -1 1 0
161 9 3 0.033922 38.1925 8.74244 20.6216 -1 1 0
162 9 3 0.033922 38.2571 8.11423 18.8387 -1 1 0
163 10 1 -0.091211 10.4517 7.37594 9.47009 0 0 1
164 10 1 -0.050311 9.7283 7.26977 8.14443 0 0 1
165 10 2 -0.174311 10.4794 8.11936 7.13338 0 0 1
166 10 2 -0.174311 10.2712 8.1455 5.77106 0 0 1
167 10 1 -0.050311 9.20489 7.49778 4.91577 0 0 1
168 10 1 -0.091211 9.68791 6.99151 3.55449 0 0 1
169 10 3 0.033922 11.4864 7.03384 9.37547 0 0 1
170 10 3 0.033922 10.0054 6.71739 10.221 0 0 1
171 10 3 0.033922 10.5068 8.42061 9.78979 0 0 1
172 10 3 0.046089 9.66397 6.23714 7.78927 0 0 1
173 10 3 0.046089 8.74644 7.70171 8.35896 0 0 1
174 10 4 0.121889 11.1344 8.89302 7.52136 0 0 1
175 10 4 0.121889 10.8723 8.875 5.23764 0 0 1
176 10 3 0.046089 8.43761 8.2673 4.79032 0 0 1
177 10 3 0.046089 8.68723 6.68537 5.43408 0 0 1
178 10 3 0.033922 8.88106 6.88248 2.8239 0 0 1
179 10 3 0.033922 10.4477 7.6994 3.21065 0 0 1
180 10 3 0.033922 10.0887 5.9818 3.68284 0 0 1
181 11 1 -0.091211 -1.68646 9.7552 18.2505 0 0 0
182 11 1 -0.050311 -1.69393 10.9857 19.1593 0 0 0
183 11 2 -0.174311 -2.96367 11.0058 20.0242 0 0 0
184 11 2 -0.174311 -3.13603 11.5785 21.2774 0 0 0
185 11 1 -0.050311 -2.06112 12.2729 -0.418244 0 0 1
186 11 1 -0.091211 -2.71718 13.2053 0.673175 0 0 1
187 11 3 0.033922 -0.896099 9.80657 17.4959 0 0 0
188 11 3 0.033922 -2.65998 9.70526 17.7541 0 0 0
189 11 3 0.033922 -1.37959 8.84488 18.7737 0 0 0
190 11 3 0.046089 -0.820035 11.1081 19.8058 0 0 0
191 11 3 0.046089 -1.60547 11.8351 18.4757 0 0 0
192 11 4 0.121889 -3.87051 10.6637 19.5357 0 0 0
193 11 4 0.121889 -4.16445 11.5345 21.6216 0 0 0
194 11 3 0.046089 -1.47279 12.8193 21.3497 0 0 0
195 11 3 0.046089 -1.39054 11.5079 -0.0162434 0 0 1
196 11 3 0.033922 -3.57393 13.7173 0.225413 0 0 1
197 11 3 0.033922 -3.09581 12.5556 1.46766 0 0 1
198 11 3 0.033922 -2.05169 13.8729 1.22824 0 0 1
199 12 1 -0.091211 5.73133 8.81499 10.2995 0 0 0
200 12 1 -0.050311 4.82083 8.33263 11.3973 0 0 0
201 12 2 -0.174311 3.53198 7.69616 10.7654 0 0 0
202 12 2 -0.174311 2.22071 7.69541 11.2981 0 0 0
203 12 1 -0.050311 1.81297 8.53196 12.4315 0 0 0
204 12 1 -0.091211 1.24563 7.75063 13.5949 0 0 0
205 12 3 0.033922 6.72919 9.12089 10.6271 0 0 0
206 12 3 0.033922 5.27006 9.73292 9.9237 0 0 0
207 12 3 0.033922 5.86125 8.04047 9.53801 0 0 0
208 12 3 0.046089 5.29846 7.66172 12.1173 0 0 0
209 12 3 0.046089 4.5799 9.21298 12.0003 0 0 0
210 12 4 0.121889 3.61336 7.0742 9.87966 0 0 0
211 12 4 0.121889 1.45662 7.12385 10.7809 0 0 0
212 12 3 0.046089 0.980989 9.08093 11.9809 0 0 0
213 12 3 0.046089 2.55316 9.21698 12.8552 0 0 0
214 12 3 0.033922 0.307738 7.27087 13.3002 0 0 0
215 12 3 0.033922 1.94943 6.96867 13.8946 0 0 0
216 12 3 0.033922 1.14186 8.38207 14.4821 0 0 0
217 13 1 -0.091211 -1.15814 15.5797 8.34368 0 0 1
218 13 1 -0.050311 -0.550781 14.9287 9.55046 0 0 1
219 13 2 -0.174311 -1.24505 13.6582 9.9113 0 0 1
220 13 2 -0.174311 -0.737794 12.9755 11.0506 0 0 1
221 13 1 -0.050311 0.413526 13.1609 11.9057 0 0 1
222 13 1 -0.091211 0.913824 11.8523 12.4494 0 0 1
223 13 3 0.033922 -0.558188 16.3763 7.89418 0 0 1
224 13 3 0.033922 -2.13682 16.0093 8.5765 0 0 1
225 13 3 0.033922 -1.30285 14.8104 7.5795 0 0 1
226 13 3 0.046089 0.487754 14.7535 9.25481 0 0 1
227 13 3 0.046089 -0.503396 15.6698 10.3537 0 0 1
228 13 4 0.121889 -2.19741 13.3773 9.47294 0 0 1
229 13 4 0.121889 -1.3831 12.1805 11.4106 0 0 1
230 13 3 0.046089 0.133657 13.8411 12.7154 0 0 1
231 13 3 0.046089 1.29069 13.5673 11.3938 0 0 1
232 13 3 0.033922 1.27721 11.2582 11.6059 0 0 1
233 13 3 0.033922 1.74645 12.0708 13.1244 0 0 1
234 13 3 0.033922 0.181892 11.3103 13.0553 0 0 1
235 14 1 -0.091211 14.1756 4.76948 7.04125 0 0 0
236 14 1 -0.050311 14.6969 4.94581 5.68367 0 0 0
237 14 2 -0.174311 15.9191 5.88933 5.60523 0 0 0
238 14 2 -0.174311 17.1764 5.5814 5.05317 0 0 0
239 14 1 -0.050311 17.3767 4.32944 4.20417 0 0 0
240 14 1 -0.091211 18.8651 4.24908 3.87906 0 0 0
241 14 3 0.033922 14.0426 5.76462 7.47554 0 0 0
242 14 3 0.033922 14.8552 4.22506 7.70327 0 0 0
243 14 3 0.033922 13.1829 4.31001 7.0494 0 0 0
244 14 3 0.046089 15.0491 3.97558 5.32141 0 0 0
245 14 3 0.046089 14.0056 5.51759 5.05777 0 0 0
246 14 4 0.121889 15.7232 6.86769 6.03237 0 0 0
247 14 4 0.121889 17.9258 6.3638 5.11805 0 0 0
248 14 3 0.046089 16.689 4.25451 3.35675 0 0 0
249 14 3 0.046089 17.1694 3.44421 4.81243 0 0 0
250 14 3 0.033922 19.4979 4.33726 4.76704 0 0 0
251 14 3 0.033922 19.1609 3.35202 3.32736 0 0 0
252 14 3 0.033922 19.1115 5.07901 3.2104 0 0 0
253 15 1 -0.091211 1.00333 3.05402 4.20892 0 1 1
254 15 1 -0.050311 0.935618 4.46809 3.50771 0 1 1
255 15 2 -0.174311 -0.406169 4.63322 2.83768 0 1 1
256 15 2 -0.174311 -0.616645 5.55665 1.83388 0 1 1
257 15 1 -0.050311 0.457078 6.4551 1.22425 0 1 1
258 15 1 -0.091211 -0.0914086 7.85459 0.90053 0 1 1
259 15 3 0.033922 0.304633 3.13736 5.04651 0 1 1
260 15 3 0.033922 2.06292 2.93754 4.45455 0 1 1
261 15 3 0.033922 0.711684 2.27922 3.49391 0 1 1
262 15 3 0.046089 1.08553 5.23027 4.27793 0 1 1
263 15 3 0.046089 1.79427 4.58018 2.83927 0 1 1
264 15 4 0.121889 -1.28705 4.05883 3.10627 0 1 1
265 15 4 0.121889 -1.57574 5.56306 1.32582 0 1 1
266 15 3 0.046089 0.760757 6.02967 0.263288 0 1 1
267 15 3 0.046089 1.31546 6.55805 1.8945 0 1 1
268 15 3 0.033922 -0.843804 7.71178 0.1194 0 1 1
269 15 3 0.033922 -0.517576 8.37636 1.76238 0 1 1
270 15 3 0.033922 0.740813 8.47603 0.557244 0 1 1
271 16 1 -0.091211 9.65 2.98026 8.1276 0 1 0
272 16 1 -0.050311 9.11102 2.47719 6.78265 0 1 0
273 16 2 -0.174311 8.96702 3.60368 5.83035 0 1 0
274 16 2 -0.174311 9.09697 3.55932 4.42658 0 1 0
275 16 1 -0.050311 9.4999 2.37877 3.57668 0 1 0
276 16 1 -0.091211 9.4483 2.67608 2.13604 0 1 0
277 16 3 0.033922 8.90883 3.51959 8.72461 0 1 0
278 16 3 0.033922 10.5277 3.59409 7.90522 0 1 0
279 16 3 0.033922 9.98862 2.20636 8.82261 0 1 0
280 16 3 0.046089 9.85266 1.76211 6.41489 0 1 0
281 16 3 0.046089 8.14732 2.01062 7.00676 0 1 0
282 16 4 0.121889 8.50363 4.46862 6.29419 0 1 0
283 16 4 0.121889 8.78768 4.44219 3.87625 0 1 0
284 16 3 0.046089 8.94493 19.891 3.82799 0 0 0
285 16 3 0.046089 10.5091 2.0295 3.81387 0 1 0
286 16 3 0.033922 8.45014 3.06437 1.91344 0 1 0
287 16 3 0.033922 10.1086 3.53585 1.98987 0 1 0
288 16 3 0.033922 9.67904 1.87161 1.43162 0 1 0
289 17 1 -0.091211 8.52352 11.4834 9.72037 0 0 0
290 17 1 -0.050311 10.0546 11.364 9.86932 0 0 0
291 17 2 -0.174311 10.6252 12.4863 10.6884 0 0 0
292 17 2 -0.174311 11.9627 12.9447 10.4179 0 0 0
293 17 1 -0.050311 12.9271 12.2645 9.51886 0 0 0
294 17 1 -0.091211 14.3528 12.9293 9.55378 0 0 0
295 17 3 0.033922 8.23823 10.5296 9.26722 0 0 0
296 17 3 0.033922 8.20456 12.2747 9.0357 0 0 0
297 17 3 0.033922 7.99776 11.5374 10.6781 0 0 0
298 17 3 0.046089 10.2766 10.3952 10.3261 0 0 0
299 17 3 0.046089 10.4918 11.3534 8.8666 0 0 0
300 17 4 0.121889 10.0245 12.9474 11.4659 0 0 0
301 17 4 0.121889 12.2358 13.8115 11.0113 0 0 0
302 17 3 0.046089 12.5989 12.2775 8.47542 0 0 0
303 17 3 0.046089 13.11 11.2203 9.78874 0 0 0
304 17 3 0.033922 14.509 13.8653 9.00963 0 0 0
305 17 3 0.033922 14.7099 13.0823 10.5764 0 0 0
306 17 3 0.033922 15.0437 12.2267 9.07887 0 0 0
307 18 1 -0.091211 37.3173 4.87286 15.0556 -1 0 1
308 18 1 -0.050311 37.7744 4.57542 13.6211 -1 0 1
309 18 2 -0.174311 38.1737 5.90685 13.021 -1 0 1
310 18 2 -0.174311 39.3956 6.25527 12.3921 -1 0 1
311 18 1 -0.050311 40.5805 5.37625 12.0851 -1 0 1
312 18 1 -0.091211 41.5725 5.97585 10.9915 -1 0 1
313 18 3 0.033922 37.3514 3.99731 15.7105 -1 0 1
314 18 3 0.033922 36.3279 5.33938 15.0625 -1 0 1
315 18 3 0.033922 38.0398 5.60091 15.4359 -1 0 1
316 18 3 0.046089 38.5416 3.7962 13.592 -1 0 1
317 18 3 0.046089 36.9285 4.20897 13.0321 -1 0 1
318 18 4 0.121889 37.3612 6.62634 13.033 -1 0 1
319 18 4 0.121889 39.4409 7.29242 12.0754 -1 0 1
320 18 3 0.046089 40.1551 4.45586 11.6746 -1 0 1
321 18 3 0.046089 41.2224 5.04969 12.9085 -1 0 1
322 18 3 0.033922 40.9824 6.10551 10.0796 -1 0 1
323 18 3 0.033922 42.0876 6.87555 11.3406 -1 0 1
324 18 3 0.033922 42.3256 5.23901 10.6973 -1 0 1
325 19 1 -0.091211 6.15431 10.2816 2.23037 0 0 0
326 19 1 -0.050311 7.48434 10.1836 1.46494 0 0 0
327 19 2 -0.174311 7.68393 8.67827 1.14592 0 0 0
328 19 2 -0.174311 8.66448 8.21814 0.24259 0 0 0
329 19 1 -0.050311 9.73146 9.18095 -0.325942 0 0 0
330 19 1 -0.091211 9.55421 9.39307 20.6851 0 0 -1
331 19 3 0.033922 5.80309 11.3143 2.31155 0 0 0
332 19 3 0.033922 6.23856 9.84891 3.23156 0 0 0
333 19 3 0.033922 5.35957 9.74609 1.70283 0 0 0
334 19 3 0.046089 7.30858 10.6471 0.48977 0 0 0
335 19 3 0.046089 8.34561 10.5317 2.04259 0 0 0
336 19 4 0.121889 7.16642 7.92887 1.73634 0 0 0
337 19 4 0.121889 8.73473 7.16328 -0.00298509 0 0 0
338 19 3 0.046089 10.6605 8.60909 -0.245018 0 0 0
339 19 3 0.046089 9.8803 10.1381 0.182366 0 0 0
340 19 3 0.033922 8.56431 9.74314 20.3782 0 0 -1
341 19 3 0.033922 10.3179 10.1369 20.4398 0 0 -1
342 19 3 0.033922 9.71365 8.44812 20.1576 0 0 -1
343 20 1 -0.091211 13.7266 16.7566 4.64201 0 -1 0
344 20 1 -0.050311 13.105 18.1016 4.79849 0 -1 0
345 20 2 -0.174311 14.0473 19.2409 4.42518 0 -1 0
346 20 2 -0.174311 14.1227 19.8513 3.15993 0 -1 0
347 20 1 -0.050311 13.3962 19.4595 1.95779 0 -1 0
348 20 1 -0.091211 14.4221 19.4999 0.878153 0 -1 0
349 20 3 0.033922 14.5587 16.6873 5.3487 0 -1 0
350 20 3 0.033922 14.181 16.6861 3.64945 0 -1 0
351 20 3 0.033922 12.9303 16.0073 4.60958 0 -1 0
352 20 3 0.046089 12.2211 18.1821 4.15904 0 -1 0
353 20 3 0.046089 12.8689 18.2344 5.85835 0 -1 0
354 20 4 0.121889 14.7408 19.7106 5.11541 0 -1 0
355 20 4 0.121889 14.7071 2.34513 3.15562 0 0 0
356 20 3 0.046089 12.5812 1.69416 1.63718 0 0 0
357 20 3 0.046089 12.9568 18.4748 2.14183 0 -1 0
358 20 3 0.033922 14.6213 2.13881 0.694403 0 0 0
359 20 3 0.033922 15.3116 18.9412 1.18383 0 -1 0
360 20 3 0.033922 14.0435 19.0359 -0.0372798 0 -1 0
361 21 1 -0.091211 -4.39159 2.33542 3.07704 0 0 1
362 21 1 -0.050311 -4.12291 19.6587 4.11789 0 -1 1
363 21 2 -0.174311 -2.76972 19.7385 4.76422 0 -1 1
364 21 2 -0.174311 -1.94237 18.6875 5.14524 0 -1 1
365 21 1 -0.050311 -2.28093 17.2487 5.02208 0 -1 1
366 21 1 -0.091211 -1.41626 16.6863 3.88678 0 -1 1
367 21 3 0.033922 -3.7916 2.17 2.17742 0 0 1
368 21 3 0.033922 -4.12624 3.32226 3.46733 0 0 1
369 21 3 0.033922 43.9971 2.36392 2.79164 -1 0 1
370 21 3 0.046089 -4.82067 19.8083 4.94698 0 -1 1
371 21 3 0.046089 -4.37015 18.6756 3.70689 0 -1 1
372 21 4 0.121889 -2.35875 2.31098 4.91407 0 0 1
373 21 4 0.121889 -0.989575 18.9549 5.59105 0 -1 1
374 21 3 0.046089 -3.33567 17.1432 4.75183 0 -1 1
375 21 3 0.046089 -2.1182 16.78 5.99702 0 -1 1
376 21 3 0.033922 -0.334484 16.7776 4.02117 0 -1 1
377 21 3 0.033922 -1.5841 15.6288 3.66302 0 -1 1
378 21 3 0.033922 -1.70568 17.2704 3.0083 0 -1 1
379 22 1 -0.091211 7.87656 13.8343 -0.434761 0 -1 1
380 22 1 -0.050311 7.74795 14.4423 20.6942 0 -1 0
381 22 2 -0.174311 7.87717 13.2603 19.7154 0 -1 0
382 22 2 -0.174311 7.61655 13.3915 18.3598 0 -1 0
383 22 1 -0.050311 7.03169 14.6444 17.724 0 -1 0
384 22 1 -0.091211 5.49689 14.4354 17.6404 0 -1 0
385 22 3 0.033922 7.87108 14.6468 0.297672 0 -1 1
386 22 3 0.033922 8.75763 13.1988 -0.30668 0 -1 1
387 22 3 0.033922 6.98151 13.2643 -0.169124 0 -1 1
388 22 3 0.046089 6.81462 14.9914 20.5393 0 -1 0
389 22 3 0.046089 8.60494 15.1175 20.615 0 -1 0
390 22 4 0.121889 8.37663 12.3354 19.9859 0 -1 0
391 22 4 0.121889 7.80025 12.5943 17.6466 0 -1 0
392 22 3 0.046089 7.46205 14.8101 16.732 0 -1 0
393 22 3 0.046089 7.37979 15.5259 18.2701 0 -1 0
394 22 3 0.033922 5.14089 14.7522 18.625 0 -1 0
395 22 3 0.033922 5.06492 15.0828 16.8717 0 -1 0
396 22 3 0.033922 5.2974 13.3747 17.462 0 -1 0
397 23 1 -0.091211 2.00324 8.97687 3.42487 0 0 0
398 23 1 -0.050311 0.811616 9.96827 3.38436 0 0 0
399 23 2 -0.174311 1.14409 11.1769 4.20065 0 0 0
400 23 2 -0.174311 0.20357 12.1158 4.57039 0 0 0
401 23 1 -0.050311 -1.33838 12.1463 4.33039 0 0 0
402 23 1 -0.091211 -2.15834 12.3527 5.5898 0 0 0
403 23 3 0.033922 2.66271 9.06775 4.29291 0 0 0
404 23 3 0.033922 2.65788 9.15761 2.56729 0 0 0
405 23 3 0.033922 1.62045 7.95328 3.47309 0 0 0
406 23 3 0.046089 0.510826 10.3179 2.39244 0 0 0
407 23 3 0.046089 -0.0194775 9.45786 3.87974 0 0 0
408 23 4 0.121889 2.19294 11.3857 4.38603 0 0 0
409 23 4 0.121889 0.666339 12.9603 5.07111 0 0 0
410 23 3 0.046089 -1.6297 11.1941 3.87764 0 0 0
411 23 3 0.046089 -1.55281 12.9015 3.56856 0 0 0
412 23 3 0.033922 -3.23995 12.3717 5.4273 0 0 0
413 23 3 0.033922 -1.88252 11.6855 6.41169 0 0 0
414 23 3 0.033922 -1.89673 13.3798 5.86023 0 0 0
415 24 1 -0.091211 2.4311 15.796 6.06266 0 0 0
416 24 1 -0.050311 3.86252 15.7187 5.70596 0 0 0
417 24 2 -0.174311 4.32311 16.973 5.0676 0 0 0
418 24 2 -0.174311 5.58212 17.3628 4.73472 0 0 0
419 24 1 -0.050311 6.78774 16.4574 4.78792 0 0 0
420 24 1 -0.091211 7.83053 17.1468 5.72102 0 0 0
421 24 3 0.033922 2.41442 16.3144 7.02579 0 0 0
422 24 3 0.033922 1.9532 14.8155 6.14509 0 0 0
423 24 3 0.033922 1.8335 16.4015 5.375 0 0 0
424 24 3 0.046089 4.47847 15.4048 6.55375 0 0 0
425 24 3 0.046089 3.9984 14.9639 4.92599 0 0 0
426 24 4 0.121889 3.63095 17.7939 4.90952 0 0 0
427 24 4 0.121889 5.61643 18.3206 4.22544 0 0 0
428 24 3 0.046089 7.16939 16.4391 3.7629 0 0 0
429 24 3 0.046089 6.59104 15.4407 5.14058 0 0 0
430 24 3 0.033922 7.87509 18.1762 5.35343 0 0 0
431 24 3 0.033922 7.69937 17.044 6.80217 0 0 0
432 24 3 0.033922 8.71457 16.6171 5.35433 0 0 0
433 25 1 -0.091211 -0.852525 3.65471 21.25 0 0 0
434 25 1 -0.050311 -0.928883 2.32645 -0.578815 0 0 1
435 25 2 -0.174311 -1.65185 19.7013 21.0415 0 -1 0
436 25 2 -0.174311 -1.19968 18.4003 20.7196 0 -1 0
437 25 1 -0.050311 -0.088346 17.6416 21.3993 0 -1 0
438 25 1 -0.091211 0.249959 16.3652 20.7205 0 -1 0
439 25 3 0.033922 -1.89847 3.90286 21.0474 0 0 0
440 25 3 0.033922 -0.422985 3.63463 20.2441 0 0 0
441 25 3 0.033922 -0.533368 4.45935 21.9188 0 0 0
442 25 3 0.046089 0.0646013 1.93435 -0.34243 0 0 1
443 25 3 0.046089 -1.49319 2.52832 0.336315 0 0 1
444 25 4 0.121889 -2.60951 19.9569 20.5992 0 -1 0
445 25 4 0.121889 -1.76889 17.8653 19.9661 0 -1 0
446 25 3 0.046089 -0.377546 17.3354 -0.102052 0 -1 1
447 25 3 0.046089 0.851683 18.1966 21.4702 0 -1 0
448 25 3 0.033922 0.744969 16.6376 19.7838 0 -1 0
449 25 3 0.033922 0.969936 15.819 21.337 0 -1 0
450 25 3 0.033922 -0.669174 15.7746 20.6661 0 -1 0
451 26 1 -0.091211 -5.19172 15.333 7.35544 0 -1 1
452 26 1 -0.050311 43.671 14.755 6.11166 -1 -1 1
453 26 2 -0.174311 -4.69193 14.7172 4.97968 0 -1 1
454 26 2 -0.174311 -4.9321 14.8227 3.60115 0 -1 1
455 26 1 -0.050311 43.1083 14.6898 3.08486 -1 -1 1
456 26 1 -0.091211 42.9165 14.2041 1.63341 -1 -1 1
457 26 3 0.033922 43.6218 15.2261 8.24273 -1 -1 1
458 26 3 0.033922 -5.08146 16.4119 7.2131 0 -1 1
459 26 3 0.033922 -4.2055 14.9062 7.56011 0 -1 1
460 26 3 0.046089 43.344 13.7273 6.29499 -1 -1 1
461 26 3 0.046089 42.7703 15.3357 5.8923 -1 -1 1
462 26 4 0.121889 -3.64467 14.855 5.2293 0 -1 1
463 26 4 0.121889 -4.09736 14.731 2.91352 0 -1 1
464 26 3 0.046089 42.6714 15.6877 3.18435 -1 -1 1
465 26 3 0.046089 42.5547 14.0626 3.78968 -1 -1 1
466 26 3 0.033922 41.8814 14.0189 1.33167 -1 -1 1
467 26 3 0.033922 43.3859 14.9486 0.983855 -1 -1 1
468 26 3 0.033922 43.3307 13.1948 1.5534 -1 -1 1
469 27 1 -0.091211 17.6676 16.3555 21.4087 0 0 -1
470 27 1 -0.050311 17.5202 14.9024 20.7726 0 0 -1
471 27 2 -0.174311 16.1549 14.4072 21.0115 0 0 -1
472 27 2 -0.174311 15.7031 13.1705 21.2753 0 0 -1
473 27 1 -0.050311 16.5724 11.9977 21.657 0 0 -1
474 27 1 -0.091211 15.7922 11.2174 0.14913 0 0 0
475 27 3 0.033922 18.5525 16.73 20.8858 0 0 -1
476 27 3 0.033922 17.7262 16.2966 -0.0115433 0 0 0
477 27 3 0.033922 16.836 16.9906 21.0899 0 0 -1
478 27 3 0.046089 17.7738 15.0757 19.7226 0 0 -1
479 27 3 0.046089 18.26 14.2174 21.1971 0 0 -1
480 27 4 0.121889 15.3252 15.1032 20.94 0 0 -1
481 27 4 0.121889 14.6521 13.0067 21.4914 0 0 -1
482 27 3 0.046089 17.5164 12.3426 -0.422069 0 0 0
483 27 3 0.046089 16.7836 11.3001 20.8413 0 0 -1
484 27 3 0.033922 15.0126 10.6825 -0.401125 0 0 0
485 27 3 0.033922 16.4094 10.5701 0.778983 0 0 0
486 27 3 0.033922 15.3247 11.934 0.830698 0 0 0
487 28 1 -0.091211 10.5469 17.0696 0.492002 0 -1 0
488 28 1 -0.050311 11.2964 15.9724 1.30522 0 -1 0
489 28 2 -0.174311 12.5944 15.5744 0.744024 0 -1 0
490 28 2 -0.174311 13.2252 14.3473 0.965656 0 -1 0
491 28 1 -0.050311 12.6684 13.3397 1.99363 0 -1 0
492 28 1 -0.091211 11.7988 12.1952 1.40953 0 -1 0
493 28 3 0.033922 9.97917 16.6688 -0.35283 0 -1 0
494 28 3 0.033922 11.3582 17.7361 0.185107 0 -1 0
495 28 3 0.033922 9.86757 17.6342 1.13731 0 -1 0
496 28 3 0.046089 11.4144 16.2075 2.36704 0 -1 0
497 28 3 0.046089 10.7029 15.0555 1.36591 0 -1 0
498 28 4 0.121889 13.1673 16.2868 0.158952 0 -1 0
499 28 4 0.121889 14.2187 14.1217 0.591542 0 -1 0
500 28 3 0.046089 12.1055 13.8551 2.7773 0 -1 0
501 28 3 0.046089 13.572 12.9129 2.43871 0 -1 0
502 28 3 0.033922 11.7724 11.4507 2.21048 0 -1 0
503 28 3 0.033922 10.7845 12.5893 1.29761 0 -1 0
504 28 3 0.033922 12.209 11.9039 0.438155 0 -1 0
505 29 1 -0.091211 3.33034 7.74075 6.69309 0 0 0
506 29 1 -0.050311 2.26518 6.78704 7.23724 0 0 0
507 29 2 -0.174311 2.90764 5.40822 7.15554 0 0 0
508 29 2 -0.174311 2.59438 4.3274 7.97487 0 0 0
509 29 1 -0.050311 1.59028 4.48899 9.02857 0 0 0
510 29 1 -0.091211 1.13706 3.18339 9.66082 0 0 0
511 29 3 0.033922 3.72007 7.34997 5.7486 0 0 0
512 29 3 0.033922 4.22241 7.75211 7.32612 0 0 0
513 29 3 0.033922 2.92117 8.74243 6.53243 0 0 0
514 29 3 0.046089 2.07194 7.01657 8.28921 0 0 0
515 29 3 0.046089 1.3404 6.80643 6.65324 0 0 0
516 29 4 0.121889 3.63117 5.32023 6.3513 0 0 0
517 29 4 0.121889 3.01823 3.35003 7.76732 0 0 0
518 29 3 0.046089 0.677635 5.00054 8.70914 0 0 0
519 29 3 0.046089 2.07415 5.18379 9.72121 0 0 0
520 29 3 0.033922 0.742883 2.45687 8.94428 0 0 0
521 29 3 0.033922 2.03297 2.6766 10.0311 0 0 0
522 29 3 0.033922 0.300495 3.2794 10.3591 0 0 0
523 30 1 -0.091211 0.658058 17.658 11.8984 0 0 1
524 30 1 -0.050311 1.28989 17.922 10.5271 0 0 1
525 30 2 -0.174311 2.42782 16.9319 10.3642 0 0 1
526 30 2 -0.174311 3.64028 17.4149 9.93128 0 0 1
527 30 1 -0.050311 3.97344 18.8438 9.44434 0 0 1
528 30 1 -0.091211 4.79634 18.8033 8.14402 0 0 1
529 30 3 0.033922 1.2284 18.1931 12.6633 0 0 1
530 30 3 0.033922 0.577881 16.5831 12.0847 0 0 1
531 30 3 0.033922 -0.343798 18.0967 11.92 0 0 1
532 30 3 0.046089 0.55334 17.801 9.72739 0 0 1
533 30 3 0.046089 1.58054 18.9736 10.6059 0 0 1
534 30 4 0.121889 2.31802 15.8711 10.5656 0 0 1
535 30 4 0.121889 4.41124 16.6682 10.0929 0 0 1
536 30 3 0.046089 4.4908 19.3875 10.2402 0 0 1
537 30 3 0.046089 3.09473 19.4212 9.14247 0 0 1
538 30 3 0.033922 4.98833 19.8275 7.8113 0 0 1
539 30 3 0.033922 5.77647 18.3327 8.2646 0 0 1
540 30 3 0.033922 4.14109 18.3309 7.40635 0 0 1
541 31 1 -0.091211 20.5904 18.8915 20.334 0 0 0
542 31 1 -0.050311 20.8514 17.5574 19.7447 0 0 0
543 31 2 -0.174311 19.9763 17.2883 18.5126 0 0 0
544 31 2 -0.174311 19.8174 16.0342 17.8395 0 0 0
545 31 1 -0.050311 20.5013 14.768 18.1848 0 0 0
546 31 1 -0.091211 21.8873 14.8039 17.6422 0 0 0
547 31 3 0.033922 21.2319 19.0376 21.2079 0 0 0
548 31 3 0.033922 19.5445 19.0688 20.6009 0 0 0
549 31 3 0.033922 20.8115 19.6744 19.6027 0 0 0
550 31 3 0.046089 21.9258 17.4563 19.5658 0 0 0
551 31 3 0.046089 20.5496 16.8526 20.525 0 0 0
552 31 4 0.121889 19.4303 18.0876 18.0216 0 0 0
553 31 4 0.121889 19.1254 16.1029 17.0062 0 0 0
554 31 3 0.046089 19.8671 13.9051 17.9617 0 0 0
555 31 3 0.046089 20.705 14.7846 19.2595 0 0 0
556 31 3 0.033922 21.6567 15.271 16.6803 0 0 0
557 31 3 0.033922 22.6035 15.4405 18.1698 0 0 0
558 31 3 0.033922 22.3238 13.8123 17.4912 0 0 0
559 32 1 -0.091211 16.6846 5.76277 0.265327 0 1 0
560 32 1 -0.050311 16.8232 5.14782 21.3675 0 1 -1
561 32 2 -0.174311 17.4728 3.80677 21.4804 0 1 -1
562 32 2 -0.174311 17.0741 2.58245 20.9213 0 1 -1
563 32 1 -0.050311 15.7266 2.50526 20.141 0 1 -1
564 32 1 -0.091211 15.674 19.4835 19.5179 0 0 -1
565 32 3 0.033922 17.6718 5.95211 0.696751 0 1 0
566 32 3 0.033922 16.0401 5.13262 0.885163 0 1 0
567 32 3 0.033922 16.1851 6.72913 0.150077 0 1 0
568 32 3 0.046089 15.8392 5.18179 20.8908 0 1 -1
569 32 3 0.046089 17.4702 5.7959 20.7692 0 1 -1
570 32 4 0.121889 18.4621 3.77349 -0.585271 0 1 0
571 32 4 0.121889 17.6614 1.68556 21.0906 0 1 -1
572 32 3 0.046089 15.7372 3.30238 19.392 0 1 -1
573 32 3 0.046089 14.8714 2.55909 20.821 0 1 -1
574 32 3 0.033922 14.9596 19.4943 18.6895 0 0 -1
575 32 3 0.033922 16.6696 19.2452 19.1324 0 0 -1
576 32 3 0.033922 15.3976 18.6649 20.1889 0 0 -1
577 33 1 -0.091211 19.3676 13.0882 9.39513 0 0 0
578 33 1 -0.050311 18.3188 11.9414 9.68583 0 0 0
579 33 2 -0.174311 18.7769 11.0566 10.775 0 0 0
580 33 2 -0.174311 18.0288 9.98511 11.3155 0 0 0
581 33 1 -0.050311 16.6845 9.56322 10.8566 0 0 0
582 33 1 -0.091211 15.6554 9.7733 12.0057 0 0 0
583 33 3 0.033922 19.045 13.7289 8.56925 0 0 0
584 33 3 0.033922 20.2812 12.5304 9.1699 0 0 0
585 33 3 0.033922 19.5481 13.805 10.2015 0 0 0
586 33 3 0.046089 17.4261 12.4879 10.0036 0 0 0
587 33 3 0.046089 18.1619 11.2544 8.84914 0 0 0
588 33 4 0.121889 19.7983 11.0876 11.1408 0 0 0
589 33 4 0.121889 18.5662 9.30102 11.9644 0 0 0
590 33 3 0.046089 16.7174 8.4875 10.6609 0 0 0
591 33 3 0.046089 16.3722 10.0879 9.94893 0 0 0
592 33 3 0.033922 15.5915 10.8099 12.3491 0 0 0
593 33 3 0.033922 14.6288 9.50465 11.74 0 0 0
594 33 3 0.033922 16.0497 9.14178 12.8071 0 0 0
595 34 1 -0.091211 10.3862 16.9254 8.70866 0 0 0
596 34 1 -0.050311 11.5109 17.7273 9.43321 0 0 0
597 34 2 -0.174311 12.4859 16.8177 10.2561 0 0 0
598 34 2 -0.174311 13.7124 16.3097 9.72882 0 0 0
599 34 1 -0.050311 14.2234 16.5418 8.31895 0 0 0
600 34 1 -0.091211 15.8221 16.5908 8.4692 0 0 0
601 34 3 0.033922 9.84145 16.2656 9.39024 0 0 0
602 34 3 0.033922 10.904 16.377 7.91625 0 0 0
603 34 3 0.033922 9.5956 17.4795 8.19439 0 0 0
604 34 3 0.046089 12.0895 18.285 8.69101 0 0 0
605 34 3 0.046089 11.0474 18.4484 10.1128 0 0 0
606 34 4 0.121889 12.3283 16.6466 11.3163 0 0 0
607 34 4 0.121889 14.3654 15.7163 10.3608 0 0 0
608 34 3 0.046089 13.8224 17.4288 7.81985 0 0 0
609 34 3 0.046089 13.9894 15.7041 7.65559 0 0 0
610 34 3 0.033922 16.0335 17.5029 9.03486 0 0 0
611 34 3 0.033922 16.2114 15.7072 8.98342 0 0 0
612 34 3 0.033922 16.22 16.7153 7.45783 0 0 0
613 35 1 -0.091211 38.3665 15.3877 18.9296 -1 0 0
614 35 1 -0.050311 39.6599 14.7793 19.3333 -1 0 0