ITEM: TIMESTEP
0
ITEM: NUMBER OF ATOMS
1800
ITEM: BOX BOUNDS pp pp pp
-2.4482666601468202e+00 4.1256282160146689e+01
-6.8977093270624212e-01 2.2298426432706496e+01
-3.1512284215052450e-01 2.1568856342150582e+01
ITEM: ATOMS id mol type q x y z ix iy iz
1 1 1 -0.091211 -0.88725 2.02135 1.98899 0 0 0
2 1 1 -0.050311 0.431136 2.31867 1.28857 0 0 0
3 1 2 -0.174311 1.30614 1.05919 1.23251 0 0 0
4 1 2 -0.174311 2.60058 0.912955 1.76143 0 0 0
5 1 1 -0.050311 3.41449 1.9826 2.49001 0 0 0
6 1 1 -0.091211 4.73079 2.24062 1.73764 0 0 0
7 1 3 0.033922 -1.53785 1.54707 1.24846 0 0 0
8 1 3 0.033922 -1.36192 2.93125 2.36766 0 0 0
9 1 3 0.033922 -0.75506 1.33479 2.83029 0 0 0
10 1 3 0.046089 0.199307 2.68911 0.285746 0 0 0
11 1 3 0.046089 0.925168 3.12725 1.83514 0 0 0
12 1 4 0.121889 0.861815 0.196117 0.747031 0 0 0
13 1 4 0.121889 3.09641 -0.0480466 1.66851 0 0 0
14 1 3 0.046089 3.67587 1.62884 3.49159 0 0 0
15 1 3 0.046089 2.84626 2.9035 2.65023 0 0 0
16 1 3 0.033922 5.13479 3.25079 1.85145 0 0 0
17 1 3 0.033922 5.42156 1.52371 2.19097 0 0 0
18 1 3 0.033922 4.66815 2.02812 0.666411 0 0 0
19 2 1 -0.091211 -0.883794 2.03719 10.7414 0 0 0
20 2 1 -0.050311 0.426252 2.38001 10.0312 0 0 0
21 2 2 -0.174311 1.30537 1.13516 9.95833 0 0 0
22 2 2 -0.174311 2.59685 0.98225 10.4695 0 0 0
23 2 1 -0.050311 3.40246 2.03249 11.203 0 0 0
24 2 1 -0.091211 4.73614 2.24925 10.4836 0 0 0
25 2 3 0.033922 -1.53006 1.55428 10.0027 0 0 0
26 2 3 0.033922 -1.3738 2.93506 11.1292 0 0 0
27 2 3 0.033922 -0.743674 1.34139 11.5738 0 0 0
28 2 3 0.046089 0.182017 2.72197 9.02127 0 0 0
29 2 3 0.046089 0.915787 3.21814 10.5357 0 0 0
30 2 4 0.121889 0.863869 0.296512 9.42942 0 0 0
31 2 4 0.121889 3.11839 0.0394146 10.3389 0 0 0
32 2 3 0.046089 3.6162 1.63145 12.198 0 0 0
33 2 3 0.046089 2.87181 2.97896 11.3416 0 0 0
34 2 3 0.033922 5.14338 3.25808 10.5978 0 0 0
35 2 3 0.033922 5.41248 1.52677 10.9496 0 0 0
36 2 3 0.033922 4.68 2.03052 9.41326 0 0 0
37 3 1 -0.091211 -0.881263 2.03777 15.1189 0 0 0
38 3 1 -0.050311 0.430209 2.37995 14.4106 0 0 0
39 3 2 -0.174311 1.31377 1.13665 14.3423 0 0 0
40 3 2 -0.174311 2.6048 0.983524 14.8667 0 0 0
41 3 1 -0.050311 3.41696 2.03352 15.6129 0 0 0
42 3 1 -0.091211 4.75234 2.25554 14.8964 0 0 0
43 3 3 0.033922 -1.52803 1.55453 14.3808 0 0 0
44 3 3 0.033922 -1.37143 2.93603 15.5055 0 0 0
45 3 3 0.033922 -0.741741 1.34412 15.9532 0 0 0
46 3 3 0.046089 0.186559 2.72338 13.401 0 0 0
47 3 3 0.046089 0.918042 3.21935 14.9146 0 0 0
48 3 4 0.121889 0.873196 0.302218 13.806 0 0 0
49 3 4 0.121889 3.12241 0.0410028 14.7193 0 0 0
50 3 3 0.046089 3.64986 1.66655 16.6167 0 0 0
51 3 3 0.046089 2.87754 2.97815 15.7284 0 0 0
52 3 3 0.033922 5.15177 3.2686 15.0002 0 0 0
53 3 3 0.033922 5.42773 1.52828 15.3563 0 0 0
54 3 3 0.033922 4.72389 2.0358 13.8252 0 0 0
55 4 1 -0.091211 -0.890712 6.62115 1.98882 0 0 0
56 4 1 -0.050311 0.423228 6.94148 1.29115 0 0 0
57 4 2 -0.174311 1.30605 5.70817 1.20408 0 0 0
58 4 2 -0.174311 2.59977 5.56091 1.7157 0 0 0
59 4 1 -0.050311 3.404 6.59746 2.46924 0 0 0
60 4 1 -0.091211 4.7471 6.85005 1.7658 0 0 0
61 4 3 0.033922 -1.53766 6.14485 1.24639 0 0 0
62 4 3 0.033922 -1.37003 7.52704 2.37123 0 0 0
63 4 3 0.033922 -0.754262 5.92987 2.82556 0 0 0
64 4 3 0.046089 0.19218 7.31081 0.287747 0 0 0
65 4 3 0.046089 0.919585 7.74403 1.84446 0 0 0
66 4 4 0.121889 0.863909 4.87658 0.664646 0 0 0
67 4 4 0.121889 3.12557 4.62153 1.57746 0 0 0
68 4 3 0.046089 3.62555 6.18464 3.45772 0 0 0
69 4 3 0.046089 2.84407 7.51862 2.65513 0 0 0
70 4 3 0.033922 5.14407 7.86343 1.8757 0 0 0
71 4 3 0.033922 5.42705 6.12732 2.22617 0 0 0
72 4 3 0.033922 4.72917 6.63523 0.693348 0 0 0
73 5 1 -0.091211 -0.880274 6.63243 6.36397 0 0 0
74 5 1 -0.050311 0.436466 6.95266 5.65439 0 0 0
75 5 2 -0.174311 1.30869 5.68313 5.60904 0 0 0
76 5 2 -0.174311 2.60255 5.53305 6.13703 0 0 0
77 5 1 -0.050311 3.41555 6.6137 6.85533 0 0 0
78 5 1 -0.091211 4.75134 6.84814 6.14126 0 0 0
79 5 3 0.033922 -1.53035 6.1519 5.62701 0 0 0
80 5 3 0.033922 -1.36576 7.53427 6.74817 0 0 0
81 5 3 0.033922 -0.744974 5.94133 7.20105 0 0 0
82 5 3 0.046089 0.195227 7.30257 4.64643 0 0 0
83 5 3 0.046089 0.923212 7.7949 6.15473 0 0 0
84 5 4 0.121889 0.86545 4.81568 5.13044 0 0 0
85 5 4 0.121889 3.09125 4.56785 6.05007 0 0 0
86 5 3 0.046089 3.65327 6.2645 7.86436 0 0 0
87 5 3 0.046089 2.87372 7.55764 6.96498 0 0 0
88 5 3 0.033922 5.14662 7.86256 6.24767 0 0 0
89 5 3 0.033922 5.43108 6.12484 6.60105 0 0 0
90 5 3 0.033922 4.72493 6.63253 5.06915 0 0 0
91 6 1 -0.091211 -0.976519 6.62038 19.5176 0 0 0
92 6 1 -0.050311 0.371751 6.89958 18.7962 0 0 0
93 6 2 -0.174311 1.27547 5.65207 18.7379 0 0 0
94 6 2 -0.174311 2.5812 5.51503 19.2468 0 0 0
95 6 1 -0.050311 3.39544 6.58098 19.9666 0 0 0
96 6 1 -0.091211 4.72768 6.83815 19.2393 0 0 0
97 6 3 0.033922 -1.72335 6.16548 18.8604 0 0 0
98 6 3 0.033922 -1.41204 7.54418 19.9095 0 0 0
99 6 3 0.033922 -0.800695 5.9356 20.3524 0 0 0
100 6 3 0.046089 0.166561 7.27834 17.7907 0 0 0
101 6 3 0.046089 0.883037 7.70211 19.3358 0 0 0
102 6 4 0.121889 0.848583 4.78062 18.2518 0 0 0
103 6 4 0.121889 3.08674 4.55795 19.1665 0 0 0
104 6 3 0.046089 3.6337 6.18825 20.9593 0 0 0
105 6 3 0.046089 2.83664 7.50346 20.1493 0 0 0
106 6 3 0.033922 5.13175 7.84774 19.3579 0 0 0
107 6 3 0.033922 5.41556 6.12314 19.7 0 0 0
108 6 3 0.033922 4.67556 6.62593 18.1675 0 0 0
109 7 1 -0.091211 -0.887726 11.2196 1.98984 0 0 0
110 7 1 -0.050311 0.426425 11.54 1.29228 0 0 0
111 7 2 -0.174311 1.31348 10.308 1.21138 0 0 0
112 7 2 -0.174311 2.60566 10.1588 1.7369 0 0 0
113 7 1 -0.050311 3.41764 11.1961 2.4985 0 0 0
114 7 1 -0.091211 4.74824 11.4478 1.77079 0 0 0
115 7 3 0.033922 -1.53505 10.7428 1.24808 0 0 0
116 7 3 0.033922 -1.3674 12.1258 2.37103 0 0 0
117 7 3 0.033922 -0.751617 10.5303 2.82829 0 0 0
118 7 3 0.046089 0.193871 11.9073 0.2885 0 0 0
119 7 3 0.046089 0.921278 12.3448 1.84359 0 0 0
120 7 4 0.121889 0.872015 9.48061 0.665002 0 0 0
121 7 4 0.121889 3.12903 9.22075 1.5816 0 0 0
122 7 3 0.046089 3.66597 10.8217 3.4959 0 0 0
123 7 3 0.046089 2.85007 12.1169 2.66135 0 0 0
124 7 3 0.033922 5.1462 12.4613 1.87604 0 0 0
125 7 3 0.033922 5.43144 10.7236 2.22403 0 0 0
126 7 3 0.033922 4.72102 11.2324 0.698654 0 0 0
127 8 1 -0.091211 -0.976219 11.2182 10.7638 0 0 0
128 8 1 -0.050311 0.372032 11.4973 10.0425 0 0 0
129 8 2 -0.174311 1.27571 10.2498 9.98404 0 0 0
130 8 2 -0.174311 2.58139 10.1128 10.4929 0 0 0
131 8 1 -0.050311 3.39536 11.1786 11.2131 0 0 0
132 8 1 -0.091211 4.7276 11.4356 10.486 0 0 0
133 8 3 0.033922 -1.72308 10.7632 10.1067 0 0 0
134 8 3 0.033922 -1.41174 12.142 11.1556 0 0 0
135 8 3 0.033922 -0.800524 10.5333 11.5984 0 0 0
136 8 3 0.046089 0.166797 11.8761 9.03698 0 0 0
137 8 3 0.046089 0.883233 12.2998 10.5822 0 0 0
138 8 4 0.121889 0.848582 9.37856 9.49782 0 0 0
139 8 4 0.121889 3.08704 9.15579 10.4124 0 0 0
140 8 3 0.046089 3.63312 10.7859 12.206 0 0 0
141 8 3 0.046089 2.83661 12.1012 11.3956 0 0 0
142 8 3 0.033922 5.13156 12.4452 10.6045 0 0 0
143 8 3 0.033922 5.41551 10.7205 10.9465 0 0 0
144 8 3 0.033922 4.67534 11.2235 9.41415 0 0 0
145 9 1 -0.091211 -0.975895 11.2183 15.1406 0 0 0
146 9 1 -0.050311 0.373362 11.498 14.421 0 0 0
147 9 2 -0.174311 1.2774 10.251 14.3616 0 0 0
148 9 2 -0.174311 2.58392 10.1144 14.8702 0 0 0
149 9 1 -0.050311 3.39704 11.1799 15.5942 0 0 0
150 9 1 -0.091211 4.74316 11.4426 14.8941 0 0 0
151 9 3 0.033922 -1.72237 10.7634 14.483 0 0 0
152 9 3 0.033922 -1.41186 12.1419 15.5325 0 0 0
153 9 3 0.033922 -0.800657 10.5334 15.9754 0 0 0
154 9 3 0.046089 0.170109 11.8795 13.4161 0 0 0
155 9 3 0.046089 0.884218 12.3003 14.9612 0 0 0
156 9 4 0.121889 0.85016 9.38089 13.8733 0 0 0
157 9 4 0.121889 3.08791 9.15651 14.7894 0 0 0
158 9 3 0.046089 3.62711 10.7848 16.588 0 0 0
159 9 3 0.046089 2.83644 12.1019 15.7738 0 0 0
160 9 3 0.033922 5.13818 12.4564 15.0069 0 0 0
161 9 3 0.033922 5.42642 10.7237 15.3556 0 0 0
162 9 3 0.033922 4.72879 11.2308 13.821 0 0 0
163 10 1 -0.091211 -0.890583 11.219 19.4966 0 0 0
164 10 1 -0.050311 0.423348 11.5385 18.7989 0 0 0
165 10 2 -0.174311 1.3056 10.3042 18.7127 0 0 0
166 10 2 -0.174311 2.59954 10.1585 19.2238 0 0 0
167 10 1 -0.050311 3.40388 11.1955 19.9769 0 0 0
168 10 1 -0.091211 4.747 11.4478 19.2733 0 0 0
169 10 3 0.033922 -1.53729 10.7429 18.7539 0 0 0
170 10 3 0.033922 -1.36999 12.125 19.8787 0 0 0
171 10 3 0.033922 -0.754229 10.5276 20.3333 0 0 0
172 10 3 0.046089 0.192455 11.9077 17.7955 0 0 0
173 10 3 0.046089 0.919842 12.3411 19.3519 0 0 0
174 10 4 0.121889 0.864581 9.47133 18.1743 0 0 0
175 10 4 0.121889 3.12612 9.21965 19.0846 0 0 0
176 10 3 0.046089 3.62597 10.7826 20.9652 0 0 0
177 10 3 0.046089 2.84422 12.1168 20.1626 0 0 0
178 10 3 0.033922 5.14401 12.4612 19.3831 0 0 0
179 10 3 0.033922 5.42696 10.725 19.7335 0 0 0
180 10 3 0.033922 4.72912 11.2329 18.2008 0 0 0
181 11 1 -0.091211 -0.882657 15.8301 1.98638 0 0 0
182 11 1 -0.050311 0.427945 16.1732 1.27794 0 0 0
183 11 2 -0.174311 1.30723 14.9287 1.20325 0 0 0
184 11 2 -0.174311 2.59945 14.7768 1.7146 0 0 0
185 11 1 -0.050311 3.4037 15.8264 2.45334 0 0 0
186 11 1 -0.091211 4.75129 16.0489 1.76103 0 0 0
187 11 3 0.033922 -1.5296 15.3476 1.248 0 0 0
188 11 3 0.033922 -1.37193 16.7281 2.37474 0 0 0
189 11 3 0.033922 -0.743287 15.1344 2.81897 0 0 0
190 11 3 0.046089 0.185167 16.5187 0.268799 0 0 0
191 11 3 0.046089 0.91694 17.011 1.7836 0 0 0
192 11 4 0.121889 0.865887 14.091 0.672767 0 0 0
193 11 4 0.121889 3.11939 13.8332 1.58298 0 0 0
194 11 3 0.046089 3.6088 15.4238 3.44956 0 0 0
195 11 3 0.046089 2.87156 16.7725 2.58873 0 0 0
196 11 3 0.033922 5.14964 17.0619 1.86959 0 0 0
197 11 3 0.033922 5.42313 15.3227 2.2278 0 0 0
198 11 3 0.033922 4.73276 15.8303 0.689356 0 0 0
199 12 1 -0.091211 -0.879994 15.827 6.36278 0 0 0
200 12 1 -0.050311 0.438949 16.148 5.65538 0 0 0
201 12 2 -0.174311 1.31406 14.8796 5.60587 0 0 0
202 12 2 -0.174311 2.61843 14.7269 6.11262 0 0 0
203 12 1 -0.050311 3.46027 15.7917 6.8189 0 0 0
204 12 1 -0.091211 4.83603 16.039 6.11694 0 0 0
205 12 3 0.033922 -1.53 15.3479 5.62487 0 0 0
206 12 3 0.033922 -1.36564 16.7283 6.74801 0 0 0
207 12 3 0.033922 -0.746492 15.1336 7.19818 0 0 0
208 12 3 0.046089 0.196176 16.4981 4.64787 0 0 0
209 12 3 0.046089 0.926064 16.9891 6.15711 0 0 0
210 12 4 0.121889 0.864424 14.0111 5.13529 0 0 0
211 12 4 0.121889 3.09443 13.7542 6.04009 0 0 0
212 12 3 0.046089 3.64515 15.4104 7.82741 0 0 0
213 12 3 0.046089 2.91591 16.732 6.94518 0 0 0
214 12 3 0.033922 5.18979 17.0679 6.22968 0 0 0
215 12 3 0.033922 5.61369 15.3676 6.49258 0 0 0
216 12 3 0.033922 4.75875 15.8444 5.04326 0 0 0
217 13 1 -0.091211 -0.889994 15.8165 10.7429 0 0 0
218 13 1 -0.050311 0.423569 16.1359 10.0456 0 0 0
219 13 2 -0.174311 1.30563 14.9016 9.95917 0 0 0
220 13 2 -0.174311 2.59952 14.7559 10.4704 0 0 0
221 13 1 -0.050311 3.40399 15.7926 11.2239 0 0 0
222 13 1 -0.091211 4.74758 16.0447 10.5208 0 0 0
223 13 3 0.033922 -1.53752 15.3407 10.0006 0 0 0
224 13 3 0.033922 -1.36852 16.7228 11.1253 0 0 0
225 13 3 0.033922 -0.753904 15.1252 11.5796 0 0 0
226 13 3 0.046089 0.192371 16.5053 9.04223 0 0 0
227 13 3 0.046089 0.919953 16.9385 10.5988 0 0 0
228 13 4 0.121889 0.8647 14.0688 9.42072 0 0 0
229 13 4 0.121889 3.1261 13.8171 10.331 0 0 0
230 13 3 0.046089 3.62597 15.3798 12.2123 0 0 0
231 13 3 0.046089 2.8442 16.7138 11.4098 0 0 0
232 13 3 0.033922 5.14371 17.0585 10.6298 0 0 0
233 13 3 0.033922 5.42903 15.3226 10.9798 0 0 0
234 13 3 0.033922 4.72975 15.8297 9.44836 0 0 0
235 14 1 -0.091211 -0.889757 15.8165 15.1193 0 0 0
236 14 1 -0.050311 0.423729 16.1358 14.4217 0 0 0
237 14 2 -0.174311 1.30579 14.9014 14.3351 0 0 0
238 14 2 -0.174311 2.59963 14.7557 14.8465 0 0 0
239 14 1 -0.050311 3.40376 15.7929 15.5999 0 0 0
240 14 1 -0.091211 4.74685 16.0453 14.8964 0 0 0
241 14 3 0.033922 -1.53735 15.3406 14.3772 0 0 0
242 14 3 0.033922 -1.36828 16.7227 15.5018 0 0 0
243 14 3 0.033922 -0.753739 15.1252 15.9562 0 0 0
244 14 3 0.046089 0.192459 16.5055 13.4184 0 0 0
245 14 3 0.046089 0.919994 16.9385 14.975 0 0 0
246 14 4 0.121889 0.864783 14.0684 13.7969 0 0 0
247 14 4 0.121889 3.12603 13.8168 14.7074 0 0 0
248 14 3 0.046089 3.62587 15.3801 16.5883 0 0 0
249 14 3 0.046089 2.84418 16.7143 15.7858 0 0 0
250 14 3 0.033922 5.14385 17.0587 15.0063 0 0 0
251 14 3 0.033922 5.42668 15.3224 15.3568 0 0 0
252 14 3 0.033922 4.72909 15.8304 13.824 0 0 0
253 15 1 -0.091211 -0.88974 15.8163 19.4957 0 0 0
254 15 1 -0.050311 0.423718 16.1377 18.7979 0 0 0
255 15 2 -0.174311 1.30641 14.9045 18.7105 0 0 0
256 15 2 -0.174311 2.59984 14.7569 19.2223 0 0 0
257 15 1 -0.050311 3.40405 15.7931 19.9762 0 0 0
258 15 1 -0.091211 4.74715 16.0452 19.2728 0 0 0
259 15 3 0.033922 -1.5375 15.3402 18.7538 0 0 0
260 15 3 0.033922 -1.36846 16.7223 19.8785 0 0 0
261 15 3 0.033922 -0.753584 15.125 20.3325 0 0 0
262 15 3 0.046089 0.192147 16.5068 17.7946 0 0 0
263 15 3 0.046089 0.919832 16.941 19.3503 0 0 0
264 15 4 0.121889 0.864621 14.0736 18.1697 0 0 0
265 15 4 0.121889 3.12614 13.818 19.0825 0 0 0
266 15 3 0.046089 3.62573 15.38 20.9645 0 0 0
267 15 3 0.046089 2.84457 16.7146 20.1613 0 0 0
268 15 3 0.033922 5.14399 17.0586 19.3828 0 0 0
269 15 3 0.033922 5.42702 15.3224 19.7333 0 0 0
270 15 3 0.033922 4.72926 15.8303 18.2004 0 0 0
271 16 1 -0.091211 -0.888442 20.4137 10.7433 0 0 0
272 16 1 -0.050311 0.427138 20.7347 10.046 0 0 0
273 16 2 -0.174311 1.31689 19.5041 9.96164 0 0 0
274 16 2 -0.174311 2.61877 19.3525 10.4653 0 0 0
275 16 1 -0.050311 3.46069 20.3731 11.2109 0 0 0
276 16 1 -0.091211 4.81799 20.6311 10.4701 0 0 0
277 16 3 0.033922 -1.53668 19.938 10.0016 0 0 0
278 16 3 0.033922 -1.3678 21.3196 11.1255 0 0 0
279 16 3 0.033922 -0.753307 19.7222 11.5801 0 0 0
280 16 3 0.046089 0.191368 21.0995 9.04203 0 0 0
281 16 3 0.046089 0.923154 21.5384 10.598 0 0 0
282 16 4 0.121889 0.868472 18.6739 9.42536 0 0 0
283 16 4 0.121889 3.13134 18.4061 10.3252 0 0 0
284 16 3 0.046089 3.66397 19.9656 12.2055 0 0 0
285 16 3 0.046089 2.89416 21.2909 11.3933 0 0 0
286 16 3 0.033922 5.18076 21.6564 10.5876 0 0 0
287 16 3 0.033922 5.6039 19.9649 10.8377 0 0 0
288 16 3 0.033922 4.70624 20.4365 9.39948 0 0 0
289 17 1 -0.091211 -0.889805 20.4138 15.1189 0 0 0
290 17 1 -0.050311 0.423643 20.7352 14.4212 0 0 0
291 17 2 -0.174311 1.30636 19.5021 14.3337 0 0 0
292 17 2 -0.174311 2.59978 19.3545 14.8456 0 0 0
293 17 1 -0.050311 3.40383 20.3906 15.5998 0 0 0
294 17 1 -0.091211 4.7471 20.6431 14.8974 0 0 0
295 17 3 0.033922 -1.53754 19.9378 14.3771 0 0 0
296 17 3 0.033922 -1.36852 21.3199 15.5017 0 0 0
297 17 3 0.033922 -0.753634 19.7225 15.9557 0 0 0
298 17 3 0.046089 0.192086 21.1043 13.4178 0 0 0
299 17 3 0.046089 0.91978 21.5385 14.9736 0 0 0
300 17 4 0.121889 0.864608 18.6712 13.793 0 0 0
301 17 4 0.121889 3.12612 18.4157 14.7058 0 0 0
302 17 3 0.046089 3.62548 19.9775 16.5881 0 0 0
303 17 3 0.046089 2.84438 21.3123 15.7847 0 0 0
304 17 3 0.033922 5.14392 21.6566 15.0068 0 0 0
305 17 3 0.033922 5.42675 19.9199 15.3575 0 0 0
306 17 3 0.033922 4.73021 20.4285 13.8249 0 0 0
307 18 1 -0.091211 -0.881204 20.4285 19.4954 0 0 0
308 18 1 -0.050311 0.43028 20.7708 18.7869 0 0 0
309 18 2 -0.174311 1.3139 19.5275 18.7188 0 0 0
310 18 2 -0.174311 2.60494 19.3742 19.2434 0 0 0
311 18 1 -0.050311 3.41737 20.4239 19.9897 0 0 0
312 18 1 -0.091211 4.75328 20.6459 19.2737 0 0 0
313 18 3 0.033922 -1.52804 19.9452 18.7574 0 0 0
314 18 3 0.033922 -1.37142 21.3267 19.8821 0 0 0
315 18 3 0.033922 -0.741648 19.7348 20.3297 0 0 0
316 18 3 0.046089 0.186685 21.1144 17.7774 0 0 0
317 18 3 0.046089 0.918123 21.6102 19.291 0 0 0
318 18 4 0.121889 0.873269 18.693 18.1826 0 0 0
319 18 4 0.121889 3.12231 18.4315 19.096 0 0 0
320 18 3 0.046089 3.64995 20.0569 20.9936 0 0 0
321 18 3 0.046089 2.87782 21.3685 20.1049 0 0 0
322 18 3 0.033922 5.15173 21.6594 19.3773 0 0 0
323 18 3 0.033922 5.42988 19.9191 19.7326 0 0 0
324 18 3 0.033922 4.72483 20.4273 18.2023 0 0 0
325 19 1 -0.091211 7.85057 2.02367 1.98948 0 0 0
326 19 1 -0.050311 9.16325 2.34317 1.29031 0 0 0
327 19 2 -0.174311 10.0453 1.10903 1.2044 0 0 0
328 19 2 -0.174311 11.3381 0.961988 1.71586 0 0 0
329 19 1 -0.050311 12.1436 1.9986 2.4656 0 0 0
330 19 1 -0.091211 13.473 2.245 1.73491 0 0 0
331 19 3 0.033922 7.20405 1.54736 1.24668 0 0 0
332 19 3 0.033922 7.37126 2.92968 2.3716 0 0 0
333 19 3 0.033922 7.98714 1.33223 2.82607 0 0 0
334 19 3 0.046089 8.93034 2.70973 0.286322 0 0 0
335 19 3 0.046089 9.66001 3.14598 1.84289 0 0 0
336 19 4 0.121889 9.60417 0.275788 0.6667 0 0 0
337 19 4 0.121889 11.8663 0.0241694 1.57629 0 0 0
338 19 3 0.046089 12.3735 1.58794 3.45308 0 0 0
339 19 3 0.046089 11.5854 2.92023 2.65458 0 0 0
340 19 3 0.033922 13.8781 3.25455 1.85036 0 0 0
341 19 3 0.033922 14.1589 1.52661 2.1933 0 0 0
342 19 3 0.033922 13.4171 2.03036 0.663735 0 0 0
343 20 1 -0.091211 7.76416 2.0262 6.38776 0 0 0
344 20 1 -0.050311 9.10871 2.32717 5.66915 0 0 0
345 20 2 -0.174311 10.0237 1.10577 5.58664 0 0 0
346 20 2 -0.174311 11.3275 0.966621 6.0919 0 0 0
347 20 1 -0.050311 12.1397 2.00123 6.84476 0 0 0
348 20 1 -0.091211 13.4859 2.25219 6.14255 0 0 0
349 20 3 0.033922 7.0204 1.5689 5.72873 0 0 0
350 20 3 0.033922 7.32361 2.94644 6.78235 0 0 0
351 20 3 0.033922 7.94332 1.33859 7.21945 0 0 0
352 20 3 0.046089 8.90251 2.70338 4.66289 0 0 0
353 20 3 0.046089 9.62045 3.12615 6.21355 0 0 0
354 20 4 0.121889 9.59967 0.268664 5.04123 0 0 0
355 20 4 0.121889 11.8596 0.0310719 5.95162 0 0 0
356 20 3 0.046089 12.364 1.58824 7.83257 0 0 0
357 20 3 0.046089 11.5815 2.92359 7.02995 0 0 0
358 20 3 0.033922 13.8839 3.26519 6.25247 0 0 0
359 20 3 0.033922 14.1662 1.52988 6.60307 0 0 0
360 20 3 0.033922 13.4695 2.0373 5.07009 0 0 0
361 21 1 -0.091211 7.85133 2.02027 10.7417 0 0 0
362 21 1 -0.050311 9.17042 2.31867 10.0426 0 0 0
363 21 2 -0.174311 10.0415 1.05837 9.97881 0 0 0
364 21 2 -0.174311 11.3381 0.91445 10.4938 0 0 0
365 21 1 -0.050311 12.1431 1.98312 11.2183 0 0 0
366 21 1 -0.091211 13.4865 2.24685 10.5171 0 0 0
367 21 3 0.033922 7.20098 1.54679 10.0005 0 0 0
368 21 3 0.033922 7.37683 2.92975 11.1216 0 0 0
369 21 3 0.033922 7.98343 1.33149 11.5812 0 0 0
370 21 3 0.046089 8.94183 2.6936 9.04066 0 0 0
371 21 3 0.046089 9.66566 3.1253 10.5909 0 0 0
372 21 4 0.121889 9.59732 0.193174 9.49701 0 0 0
373 21 4 0.121889 11.8352 -0.0471391 10.4153 0 0 0
374 21 3 0.046089 12.3702 1.58881 12.2131 0 0 0
375 21 3 0.046089 11.5819 2.90481 11.3975 0 0 0
376 21 3 0.033922 13.8795 3.26145 10.6298 0 0 0
377 21 3 0.033922 14.1707 1.52834 10.9777 0 0 0
378 21 3 0.033922 13.4701 2.03537 9.44396 0 0 0
379 22 1 -0.091211 7.85282 2.02374 15.1206 0 0 0
380 22 1 -0.050311 9.16692 2.34344 14.4232 0 0 0
381 22 2 -0.174311 10.0544 1.11241 14.3424 0 0 0
382 22 2 -0.174311 11.3466 0.963671 14.8679 0 0 0
383 22 1 -0.050311 12.1586 2.00084 15.6294 0 0 0
384 22 1 -0.091211 13.4892 2.25262 14.9015 0 0 0
385 22 3 0.033922 7.2051 1.54713 14.379 0 0 0
386 22 3 0.033922 7.37366 2.93027 15.5016 0 0 0
387 22 3 0.033922 7.98908 1.33466 15.9591 0 0 0
388 22 3 0.046089 8.9347 2.71115 13.4194 0 0 0
389 22 3 0.046089 9.66204 3.14718 14.9759 0 0 0
390 22 4 0.121889 9.6128 0.285291 13.7957 0 0 0
391 22 4 0.121889 11.87 0.0256704 14.7125 0 0 0
392 22 3 0.046089 12.407 1.62638 16.6267 0 0 0
393 22 3 0.046089 11.5909 2.92153 15.7924 0 0 0
394 22 3 0.033922 13.8872 3.26612 15.0067 0 0 0
395 22 3 0.033922 14.1724 1.52833 15.3546 0 0 0
396 22 3 0.033922 13.462 2.03727 13.8294 0 0 0
397 23 1 -0.091211 7.85279 6.62074 1.98868 0 0 0
398 23 1 -0.050311 9.16933 6.94192 1.29311 0 0 0
399 23 2 -0.174311 10.0597 5.7121 1.20802 0 0 0
400 23 2 -0.174311 11.3624 5.56099 1.712 0 0 0
401 23 1 -0.050311 12.2039 6.58069 2.46196 0 0 0
402 23 1 -0.091211 13.5753 6.84512 1.74751 0 0 0
403 23 3 0.033922 7.20465 6.14527 1.24676 0 0 0
404 23 3 0.033922 7.37335 7.52659 2.37103 0 0 0
405 23 3 0.033922 7.98749 5.92938 2.82564 0 0 0
406 23 3 0.046089 8.93559 7.31001 0.289863 0 0 0
407 23 3 0.046089 9.66491 7.7447 1.84679 0 0 0
408 23 4 0.121889 9.61118 4.88305 0.669996 0 0 0
409 23 4 0.121889 11.8732 4.61374 1.57128 0 0 0
410 23 3 0.046089 12.3988 6.171 3.45734 0 0 0
411 23 3 0.046089 11.6347 7.49734 2.64202 0 0 0
412 23 3 0.033922 13.93 7.87396 1.85847 0 0 0
413 23 3 0.033922 14.3572 6.17412 2.11486 0 0 0
414 23 3 0.033922 13.4967 6.6524 0.673591 0 0 0
415 24 1 -0.091211 7.85889 6.63481 6.36343 0 0 0
416 24 1 -0.050311 9.16927 6.97739 5.65506 0 0 0
417 24 2 -0.174311 10.0479 5.73186 5.58122 0 0 0
418 24 2 -0.174311 11.3403 5.58147 6.09228 0 0 0
419 24 1 -0.050311 12.1444 6.63138 6.831 0 0 0
420 24 1 -0.091211 13.4922 6.85397 6.13956 0 0 0
421 24 3 0.033922 7.21211 6.15243 5.62478 0 0 0
422 24 3 0.033922 7.36962 7.53289 6.75162 0 0 0
423 24 3 0.033922 7.99791 5.93895 7.19594 0 0 0
424 24 3 0.046089 8.92649 7.32287 4.64594 0 0 0
425 24 3 0.046089 9.65815 7.81538 6.16043 0 0 0
426 24 4 0.121889 9.60757 4.89271 5.05214 0 0 0
427 24 4 0.121889 11.8608 4.63834 5.95976 0 0 0
428 24 3 0.046089 12.3499 6.2286 7.82707 0 0 0
429 24 3 0.046089 11.6123 7.57754 6.96622 0 0 0
430 24 3 0.033922 13.8905 7.86707 6.24746 0 0 0
431 24 3 0.033922 14.164 6.1273 6.60573 0 0 0
432 24 3 0.033922 13.4747 6.63566 5.06782 0 0 0
433 25 1 -0.091211 7.76567 6.62289 10.7647 0 0 0
434 25 1 -0.050311 9.11316 6.92415 10.0485 0 0 0
435 25 2 -0.174311 10.0364 5.70717 9.96751 0 0 0
436 25 2 -0.174311 11.3493 5.5638 10.4653 0 0 0
437 25 1 -0.050311 12.1989 6.58133 11.2146 0 0 0
438 25 1 -0.091211 13.5731 6.84439 10.5005 0 0 0
439 25 3 0.033922 7.02169 6.16621 10.1055 0 0 0
440 25 3 0.033922 7.32445 7.54304 11.1588 0 0 0
441 25 3 0.033922 7.94339 5.93513 11.5966 0 0 0
442 25 3 0.046089 8.90464 7.29913 9.04222 0 0 0
443 25 3 0.046089 9.62411 7.72264 10.5943 0 0 0
444 25 4 0.121889 9.60514 4.87317 9.423 0 0 0
445 25 4 0.121889 11.8661 4.62 10.3234 0 0 0
446 25 3 0.046089 12.3968 6.17155 12.2093 0 0 0
447 25 3 0.046089 11.6313 7.49888 11.3951 0 0 0
448 25 3 0.033922 13.929 7.87281 10.6116 0 0 0
449 25 3 0.033922 14.3555 6.17418 10.8683 0 0 0
450 25 3 0.033922 13.4954 6.65081 9.42667 0 0 0
451 26 1 -0.091211 7.76397 6.62355 15.1416 0 0 0
452 26 1 -0.050311 9.10827 6.925 14.423 0 0 0
453 26 2 -0.174311 10.0243 5.70595 14.3393 0 0 0
454 26 2 -0.174311 11.3277 5.56548 14.845 0 0 0
455 26 1 -0.050311 12.1397 6.59879 15.599 0 0 0
456 26 1 -0.091211 13.4861 6.85019 14.8974 0 0 0
457 26 3 0.033922 7.02028 6.16614 14.4825 0 0 0
458 26 3 0.033922 7.32348 7.54385 15.5361 0 0 0
459 26 3 0.033922 7.94332 5.93595 15.9732 0 0 0
460 26 3 0.046089 8.90219 7.30093 13.4166 0 0 0
461 26 3 0.046089 9.62021 7.72295 14.9687 0 0 0
462 26 4 0.121889 9.59966 4.87127 13.7906 0 0 0
463 26 4 0.121889 11.8597 4.63007 14.7037 0 0 0
464 26 3 0.046089 12.3639 6.18524 16.5866 0 0 0
465 26 3 0.046089 11.581 7.52067 15.785 0 0 0
466 26 3 0.033922 13.884 7.86325 15.0069 0 0 0
467 26 3 0.033922 14.1663 6.12749 15.3575 0 0 0
468 26 3 0.033922 13.4706 6.63556 13.8249 0 0 0
469 27 1 -0.091211 7.85142 6.61866 19.4952 0 0 0
470 27 1 -0.050311 9.17049 6.91703 18.796 0 0 0
471 27 2 -0.174311 10.0414 5.6564 18.7323 0 0 0
472 27 2 -0.174311 11.3379 5.5122 19.2475 0 0 0
473 27 1 -0.050311 12.143 6.5806 19.9723 0 0 0
474 27 1 -0.091211 13.4862 6.84469 19.2706 0 0 0
475 27 3 0.033922 7.20161 6.14507 18.7536 0 0 0
476 27 3 0.033922 7.37643 7.52791 19.8751 0 0 0
477 27 3 0.033922 7.98353 5.9297 20.3346 0 0 0
478 27 3 0.046089 8.94186 7.29173 17.7941 0 0 0
479 27 3 0.046089 9.6657 7.72391 19.3441 0 0 0
480 27 4 0.121889 9.59743 4.79104 18.2506 0 0 0
481 27 4 0.121889 11.835 4.55061 19.1689 0 0 0
482 27 3 0.046089 12.3702 6.18662 20.9672 0 0 0
483 27 3 0.046089 11.5814 7.50202 20.1517 0 0 0
484 27 3 0.033922 13.8795 7.8592 19.3833 0 0 0
485 27 3 0.033922 14.1705 6.12624 19.7312 0 0 0
486 27 3 0.033922 13.4699 6.63312 18.1975 0 0 0
487 28 1 -0.091211 7.85299 11.2191 1.98955 0 0 0
488 28 1 -0.050311 9.16717 11.5388 1.29206 0 0 0
489 28 2 -0.174311 10.0547 10.3072 1.21107 0 0 0
490 28 2 -0.174311 11.3468 10.1574 1.73697 0 0 0
491 28 1 -0.050311 12.1586 11.1948 2.49883 0 0 0
492 28 1 -0.091211 13.4894 11.4479 1.77229 0 0 0
493 28 3 0.033922 7.20554 10.7424 1.2478 0 0 0
494 28 3 0.033922 7.37357 12.1254 2.3707 0 0 0
495 28 3 0.033922 7.98913 10.53 2.8282 0 0 0
496 28 3 0.046089 8.93473 11.9067 0.288471 0 0 0
497 28 3 0.046089 9.66195 12.3429 1.8445 0 0 0
498 28 4 0.121889 9.6128 9.47996 0.664763 0 0 0
499 28 4 0.121889 11.8696 9.21888 1.58274 0 0 0
500 28 3 0.046089 12.407 10.8208 3.49636 0 0 0
501 28 3 0.046089 11.5901 12.115 2.66225 0 0 0
502 28 3 0.033922 13.8873 12.4615 1.87712 0 0 0
503 28 3 0.033922 14.1724 10.7235 2.22543 0 0 0
504 28 3 0.033922 13.4631 11.2329 0.700045 0 0 0
505 29 1 -0.091211 7.85008 11.219 10.7437 0 0 0
506 29 1 -0.050311 9.16319 11.5388 10.0444 0 0 0
507 29 2 -0.174311 10.0452 10.3042 9.9585 0 0 0
508 29 2 -0.174311 11.3381 10.1564 10.47 0 0 0
509 29 1 -0.050311 12.1436 11.1939 11.219 0 0 0
510 29 1 -0.091211 13.4731 11.4403 10.4884 0 0 0
511 29 3 0.033922 7.20314 10.7426 10.0013 0 0 0
512 29 3 0.033922 7.37066 12.1249 11.1258 0 0 0
513 29 3 0.033922 7.98697 10.5275 11.5802 0 0 0
514 29 3 0.046089 8.93012 11.9048 9.04024 0 0 0
515 29 3 0.046089 9.66 12.3424 10.5957 0 0 0
516 29 4 0.121889 9.60412 9.47104 9.42061 0 0 0
517 29 4 0.121889 11.8659 9.21823 10.3312 0 0 0
518 29 3 0.046089 12.3735 10.7835 12.2066 0 0 0
519 29 3 0.046089 11.5858 12.1159 11.4071 0 0 0
520 29 3 0.033922 13.8782 12.4498 10.6039 0 0 0
521 29 3 0.033922 14.159 10.722 10.947 0 0 0
522 29 3 0.033922 13.4174 11.2255 9.41724 0 0 0
523 30 1 -0.091211 7.85104 11.2188 15.1194 0 0 0
524 30 1 -0.050311 9.1645 11.5385 14.4218 0 0 0
525 30 2 -0.174311 10.0469 10.3049 14.3347 0 0 0
526 30 2 -0.174311 11.3405 10.1588 14.8463 0 0 0
527 30 1 -0.050311 12.1446 11.1953 15.6003 0 0 0
528 30 1 -0.091211 13.4876 11.4476 14.8963 0 0 0
529 30 3 0.033922 7.20343 10.743 14.3773 0 0 0
530 30 3 0.033922 7.37249 12.1251 15.5019 0 0 0
531 30 3 0.033922 7.9872 10.5275 15.9562 0 0 0
532 30 3 0.046089 8.93325 11.908 13.4185 0 0 0
533 30 3 0.046089 9.66088 12.341 14.9751 0 0 0
534 30 4 0.121889 9.60604 9.47279 13.7951 0 0 0
535 30 4 0.121889 11.8673 9.22029 14.706 0 0 0
536 30 3 0.046089 12.3667 10.7827 16.5888 0 0 0
537 30 3 0.046089 11.585 12.1167 15.7859 0 0 0
538 30 3 0.033922 13.8846 12.461 15.0061 0 0 0
539 30 3 0.033922 14.1675 10.7248 15.3565 0 0 0
540 30 3 0.033922 13.4696 11.2327 13.8239 0 0 0
541 31 1 -0.091211 7.85283 11.2185 19.496 0 0 0
542 31 1 -0.050311 9.16946 11.5391 18.8003 0 0 0
543 31 2 -0.174311 10.0594 10.3082 18.7153 0 0 0
544 31 2 -0.174311 11.3623 10.1576 19.2194 0 0 0
545 31 1 -0.050311 12.2035 11.1782 19.9692 0 0 0
546 31 1 -0.091211 13.5749 11.4425 19.2545 0 0 0
547 31 3 0.033922 7.20469 10.743 18.7541 0 0 0
548 31 3 0.033922 7.37345 12.1244 19.8783 0 0 0
549 31 3 0.033922 7.98742 10.5271 20.333 0 0 0
550 31 3 0.046089 8.93573 11.9073 17.7972 0 0 0
551 31 3 0.046089 9.66511 12.3419 19.3539 0 0 0
552 31 4 0.121889 9.611 9.47834 18.1785 0 0 0
553 31 4 0.121889 11.8729 9.21014 19.0793 0 0 0
554 31 3 0.046089 12.3988 10.7688 20.9647 0 0 0
555 31 3 0.046089 11.6345 12.0949 20.1494 0 0 0
556 31 3 0.033922 13.9296 12.4713 19.3656 0 0 0
557 31 3 0.033922 14.357 10.7717 19.6219 0 0 0
558 31 3 0.033922 13.4963 11.2498 18.1806 0 0 0
559 32 1 -0.091211 7.85233 15.8166 1.99004 0 0 0
560 32 1 -0.050311 9.16675 16.1361 1.29245 0 0 0
561 32 2 -0.174311 10.0545 14.9051 1.21108 0 0 0
562 32 2 -0.174311 11.3468 14.7562 1.73676 0 0 0
563 32 1 -0.050311 12.1586 15.7937 2.49884 0 0 0
564 32 1 -0.091211 13.4894 16.0459 1.77234 0 0 0
565 32 3 0.033922 7.20415 15.3399 1.24895 0 0 0
566 32 3 0.033922 7.3733 16.7232 2.37126 0 0 0
567 32 3 0.033922 7.98879 15.1277 2.82872 0 0 0
568 32 3 0.046089 8.93454 16.5041 0.288818 0 0 0
569 32 3 0.046089 9.66189 16.9398 1.84527 0 0 0
570 32 4 0.121889 9.61286 14.0779 0.664607 0 0 0
571 32 4 0.121889 11.8695 13.8177 1.58177 0 0 0
572 32 3 0.046089 12.4069 15.4194 3.49628 0 0 0
573 32 3 0.046089 11.5908 16.7143 2.66185 0 0 0
574 32 3 0.033922 13.8873 17.0595 1.87707 0 0 0
575 32 3 0.033922 14.1724 15.3213 2.22523 0 0 0
576 32 3 0.033922 13.4631 15.8308 0.700113 0 0 0
577 33 1 -0.091211 7.8597 15.8302 10.7414 0 0 0
578 33 1 -0.050311 9.17227 16.1735 10.0331 0 0 0
579 33 2 -0.174311 10.0586 14.9313 9.96243 0 0 0
580 33 2 -0.174311 11.3592 14.7751 10.4655 0 0 0
581 33 1 -0.050311 12.2014 15.8084 11.1957 0 0 0
582 33 1 -0.091211 13.563 16.0375 10.4652 0 0 0
583 33 3 0.033922 7.21229 15.348 10.0031 0 0 0
584 33 3 0.033922 7.36965 16.728 11.1291 0 0 0
585 33 3 0.033922 7.99806 15.1342 11.5739 0 0 0
586 33 3 0.046089 8.92547 16.5141 9.02332 0 0 0
587 33 3 0.046089 9.66073 17.0121 10.5377 0 0 0
588 33 4 0.121889 9.61073 14.0942 9.43635 0 0 0
589 33 4 0.121889 11.8659 13.8244 10.3332 0 0 0
590 33 3 0.046089 12.389 15.4105 12.1971 0 0 0
591 33 3 0.046089 11.6608 16.7498 11.331 0 0 0
592 33 3 0.033922 13.9277 17.0623 10.5814 0 0 0
593 33 3 0.033922 14.3415 15.3669 10.8403 0 0 0
594 33 3 0.033922 13.4508 15.8387 9.39537 0 0 0
595 34 1 -0.091211 7.85088 15.816 15.1196 0 0 0
596 34 1 -0.050311 9.16425 16.1364 14.4222 0 0 0
597 34 2 -0.174311 10.0471 14.9039 14.3343 0 0 0
598 34 2 -0.174311 11.3406 14.7568 14.8462 0 0 0
599 34 1 -0.050311 12.1446 15.7929 15.6007 0 0 0
600 34 1 -0.091211 13.4876 16.0452 14.8972 0 0 0
601 34 3 0.033922 7.20329 15.3402 14.3774 0 0 0
602 34 3 0.033922 7.37249 16.7224 15.5021 0 0 0
603 34 3 0.033922 7.98703 15.1248 15.9563 0 0 0
604 34 3 0.046089 8.9329 16.5056 13.4188 0 0 0
605 34 3 0.046089 9.66064 16.9387 14.9758 0 0 0
606 34 4 0.121889 9.60561 14.0732 13.793 0 0 0
607 34 4 0.121889 11.8671 13.8181 14.7059 0 0 0
608 34 3 0.046089 12.3666 15.3802 16.5892 0 0 0
609 34 3 0.046089 11.585 16.7143 15.7863 0 0 0
610 34 3 0.033922 13.8846 17.0586 15.0065 0 0 0
611 34 3 0.033922 14.1676 15.3223 15.3572 0 0 0
612 34 3 0.033922 13.4701 15.8298 13.8248 0 0 0
613 35 1 -0.091211 7.85307 15.8163 19.4959 0 0 0
614 35 1 -0.050311 9.16979 16.1378 18.8002 0 0 0
615 35 2 -0.174311 10.0599 14.9071 18.715 0 0 0
616 35 2 -0.174311 11.3626 14.7554 19.2194 0 0 0
617 35 1 -0.050311 12.2036 15.7764 19.969 0 0 0
618 35 1 -0.091211 13.575 16.0407 19.2545 0 0 0
619 35 3 0.033922 7.20492 15.3407 18.7541 0 0 0
620 35 3 0.033922 7.37342 16.722 19.8783 0 0 0