ITEM: TIMESTEP
89900
ITEM: NUMBER OF ATOMS
1800
ITEM: BOX BOUNDS pp pp pp
-4.9998076619856207e+00 4.3807823161984473e+01
5.8092570946944022e-01 2.1027729790531012e+01
2.2059955896845906e-01 2.1033133941030925e+01
ITEM: ATOMS id mol type q x y z ix iy iz
1 1 1 -0.091211 6.62077 6.95666 15.3865 0 -1 0
2 1 1 -0.050311 5.86049 8.10528 14.706 0 -1 0
3 1 2 -0.174311 5.66464 9.2794 15.6457 0 -1 0
4 1 2 -0.174311 5.22485 10.5911 15.3474 0 -1 0
5 1 1 -0.050311 4.59557 11.0464 14.0846 0 -1 0
6 1 1 -0.091211 3.40792 11.9545 14.3437 0 -1 0
7 1 3 0.033922 7.69438 7.11605 15.5225 0 -1 0
8 1 3 0.033922 6.47766 6.09457 14.7285 0 -1 0
9 1 3 0.033922 6.11683 6.81993 16.3477 0 -1 0
10 1 3 0.046089 6.41765 8.41247 13.8161 0 -1 0
11 1 3 0.046089 4.9212 7.65479 14.3722 0 -1 0
12 1 4 0.121889 6.06604 9.0613 16.6302 0 -1 0
13 1 4 0.121889 5.3455 11.296 16.1637 0 -1 0
14 1 3 0.046089 4.27624 10.2032 13.4653 0 -1 0
15 1 3 0.046089 5.31641 11.6337 13.5083 0 -1 0
16 1 3 0.033922 3.05223 12.5952 13.5316 0 -1 0
17 1 3 0.033922 2.59716 11.3007 14.678 0 -1 0
18 1 3 0.033922 3.67661 12.7215 15.0759 0 -1 0
19 2 1 -0.091211 5.50948 5.01454 8.47465 0 0 0
20 2 1 -0.050311 6.36358 3.82711 8.81729 0 0 0
21 2 2 -0.174311 5.54876 2.63181 9.17923 0 0 0
22 2 2 -0.174311 5.04251 2.29554 10.4511 0 0 0
23 2 1 -0.050311 5.26747 3.04358 11.7629 0 0 0
24 2 1 -0.091211 3.83977 3.03293 12.4808 0 0 0
25 2 3 0.033922 4.88769 5.33938 9.31397 0 0 0
26 2 3 0.033922 4.83831 4.78956 7.64067 0 0 0
27 2 3 0.033922 6.20449 5.77765 8.11247 0 0 0
28 2 3 0.046089 7.0789 3.65542 8.00769 0 0 0
29 2 3 0.046089 6.82973 4.02355 9.7872 0 0 0
30 2 4 0.121889 5.36886 1.9495 8.35457 0 0 0
31 2 4 0.121889 4.51717 1.3466 10.4131 0 0 0
32 2 3 0.046089 5.54492 4.0875 11.5904 0 0 0
33 2 3 0.046089 5.99159 2.54953 12.4173 0 0 0
34 2 3 0.033922 4.00313 3.61641 13.3915 0 0 0
35 2 3 0.033922 3.11947 3.42761 11.7583 0 0 0
36 2 3 0.033922 3.67483 1.9721 12.6905 0 0 0
37 3 1 -0.091211 -2.17068 6.60568 14.1314 0 0 0
38 3 1 -0.050311 -0.981661 6.07238 14.9202 0 0 0
39 3 2 -0.174311 0.126491 5.57362 13.926 0 0 0
40 3 2 -0.174311 1.48648 5.64432 14.1152 0 0 0
41 3 1 -0.050311 2.15879 6.18015 15.4276 0 0 0
42 3 1 -0.091211 3.49698 5.48343 15.7072 0 0 0
43 3 3 0.033922 -1.9023 7.58015 13.7131 0 0 0
44 3 3 0.033922 -3.03619 6.52362 14.7953 0 0 0
45 3 3 0.033922 -2.46235 5.9851 13.2791 0 0 0
46 3 3 0.046089 -0.570457 6.79221 15.6338 0 0 0
47 3 3 0.046089 -1.31152 5.21939 15.5203 0 0 0
48 3 4 0.121889 -0.176484 4.98605 13.0652 0 0 0
49 3 4 0.121889 2.11483 5.24356 13.3262 0 0 0
50 3 3 0.046089 1.52453 5.9602 16.2913 0 0 0
51 3 3 0.046089 2.32193 7.26025 15.3702 0 0 0
52 3 3 0.033922 3.9785 5.99855 16.5435 0 0 0
53 3 3 0.033922 3.40299 4.41873 15.9398 0 0 0
54 3 3 0.033922 4.18781 5.46936 14.8592 0 0 0
55 4 1 -0.091211 -3.41956 18.2061 17.4577 0 -1 0
56 4 1 -0.050311 -3.0975 19.6333 17.006 0 -1 0
57 4 2 -0.174311 -2.36752 19.54 15.666 0 -1 0
58 4 2 -0.174311 -1.12148 20.0337 15.3569 0 -1 0
59 4 1 -0.050311 -0.320204 20.9026 16.3214 0 -1 0
60 4 1 -0.091211 1.03896 0.710522 15.6411 0 0 0
61 4 3 0.033922 -3.98402 17.6523 16.7019 0 -1 0
62 4 3 0.033922 -3.95255 18.2968 18.4087 0 -1 0
63 4 3 0.033922 -2.47026 17.7079 17.6748 0 -1 0
64 4 3 0.046089 -4.03603 20.1655 16.8257 0 -1 0
65 4 3 0.046089 -2.59655 20.2228 17.7794 0 -1 0
66 4 4 0.121889 -2.86243 18.9354 14.9127 0 -1 0
67 4 4 0.121889 -0.756051 19.9426 14.339 0 -1 0
68 4 3 0.046089 -0.331668 20.3789 17.2817 0 -1 0
69 4 3 0.046089 -0.783852 1.4119 16.581 0 0 0
70 4 3 0.033922 1.04 1.50642 14.8907 0 0 0
71 4 3 0.033922 1.73723 0.946444 16.4495 0 0 0
72 4 3 0.033922 1.41282 20.2868 15.0944 0 -1 0
73 5 1 -0.091211 -1.12022 9.33753 8.14313 0 0 0
74 5 1 -0.050311 -2.20434 9.62512 7.05872 0 0 0
75 5 2 -0.174311 -2.31421 11.1643 6.94585 0 0 0
76 5 2 -0.174311 -3.48 11.9004 7.24908 0 0 0
77 5 1 -0.050311 -4.88917 11.4158 7.65588 0 0 0
78 5 1 -0.091211 42.8336 12.3362 7.13739 -1 0 0
79 5 3 0.033922 -0.163759 9.76077 7.82278 0 0 0
80 5 3 0.033922 -1.05854 8.26059 8.32456 0 0 0
81 5 3 0.033922 -1.43051 9.79808 9.08558 0 0 0
82 5 3 0.046089 -1.9823 9.03532 6.16461 0 0 0
83 5 3 0.046089 -3.12923 9.17613 7.43229 0 0 0
84 5 4 0.121889 -1.40135 11.71 6.72935 0 0 0
85 5 4 0.121889 -3.39619 12.98 7.17704 0 0 0
86 5 3 0.046089 -4.93917 11.2452 8.73524 0 0 0
87 5 3 0.046089 43.8325 10.465 7.12181 -1 0 0
88 5 3 0.033922 43.098 12.7244 6.14945 -1 0 0
89 5 3 0.033922 41.8501 11.8585 7.17062 -1 0 0
90 5 3 0.033922 42.8529 13.165 7.85101 -1 0 0
91 6 1 -0.091211 5.79084 4.80049 0.399058 0 0 1
92 6 1 -0.050311 6.00447 3.76063 1.54623 0 0 1
93 6 2 -0.174311 6.95307 2.64988 1.02521 0 0 1
94 6 2 -0.174311 7.89662 2.0181 1.79988 0 0 1
95 6 1 -0.050311 8.28284 2.3249 3.23266 0 0 1
96 6 1 -0.091211 9.575 1.62915 3.63011 0 0 1
97 6 3 0.033922 4.93778 5.45804 0.590023 0 0 1
98 6 3 0.033922 5.58797 4.1677 20.3427 0 0 0
99 6 3 0.033922 6.6976 5.34333 20.9293 0 0 0
100 6 3 0.046089 6.39733 4.26625 2.43315 0 0 1
101 6 3 0.046089 5.0902 3.25096 1.8639 0 0 1
102 6 4 0.121889 6.88383 2.2383 20.8358 0 0 0
103 6 4 0.121889 8.46716 1.37262 1.13973 0 0 1
104 6 3 0.046089 7.4648 2.12094 3.92966 0 0 1
105 6 3 0.046089 8.52091 3.39135 3.28295 0 0 1
106 6 3 0.033922 9.81666 1.79889 4.68339 0 0 1
107 6 3 0.033922 9.45709 20.9973 3.49145 0 -1 1
108 6 3 0.033922 10.4104 1.97492 3.01439 0 0 1
109 7 1 -0.091211 32.5748 2.75032 18.3634 -1 1 -1
110 7 1 -0.050311 31.5259 3.29834 17.4754 -1 1 -1
111 7 2 -0.174311 31.9117 2.87263 16.058 -1 1 -1
112 7 2 -0.174311 31.8853 3.75327 14.9352 -1 1 -1
113 7 1 -0.050311 31.5565 5.21003 14.9192 -1 1 -1
114 7 1 -0.091211 30.9109 5.55589 13.5936 -1 1 -1
115 7 3 0.033922 33.5326 3.13844 18.0048 -1 1 -1
116 7 3 0.033922 32.7552 1.67209 18.3256 -1 1 -1
117 7 3 0.033922 32.2849 2.98702 19.3913 -1 1 -1
118 7 3 0.046089 30.5174 2.94786 17.7138 -1 1 -1
119 7 3 0.046089 31.4244 4.381 17.594 -1 1 -1
120 7 4 0.121889 32.2194 1.87044 15.7772 -1 1 -1
121 7 4 0.121889 32.2512 3.39246 13.9792 -1 1 -1
122 7 3 0.046089 32.4693 5.80804 14.9959 -1 1 -1
123 7 3 0.046089 30.8698 5.49641 15.721 -1 1 -1
124 7 3 0.033922 29.9751 4.99663 13.5036 -1 1 -1
125 7 3 0.033922 30.612 6.60812 13.5923 -1 1 -1
126 7 3 0.033922 31.5706 5.32649 12.7517 -1 1 -1
127 8 1 -0.091211 -3.8096 10.1136 0.916188 0 0 1
128 8 1 -0.050311 -4.56375 9.85897 2.23228 0 0 1
129 8 2 -0.174311 43.5119 8.53919 2.29798 -1 0 1
130 8 2 -0.174311 42.6022 8.24535 3.28213 -1 0 1
131 8 1 -0.050311 41.9727 9.28471 4.14146 -1 0 1
132 8 1 -0.091211 40.6417 8.90608 4.81378 -1 0 1
133 8 3 0.033922 -4.39409 9.81283 20.8544 0 0 0
134 8 3 0.033922 -2.86302 9.56542 0.917451 0 0 1
135 8 3 0.033922 -3.62083 11.1804 0.76508 0 0 1
136 8 3 0.046089 -3.90412 9.88242 3.10461 0 0 1
137 8 3 0.046089 43.5911 10.7336 2.30627 -1 0 1
138 8 4 0.121889 43.8162 7.80557 1.55827 -1 0 1
139 8 4 0.121889 42.3192 7.20332 3.39159 -1 0 1
140 8 3 0.046089 41.8065 10.2254 3.60858 -1 0 1
141 8 3 0.046089 42.6644 9.54503 4.94788 -1 0 1
142 8 3 0.033922 40.2598 9.74989 5.39576 -1 0 1
143 8 3 0.033922 39.9334 8.60637 4.03597 -1 0 1
144 8 3 0.033922 40.8548 8.03475 5.43985 -1 0 1
145 9 1 -0.091211 35.7514 7.27902 20.0439 -1 1 0
146 9 1 -0.050311 35.0466 7.31382 0.620284 -1 1 1
147 9 2 -0.174311 35.0312 8.70435 1.05341 -1 1 1
148 9 2 -0.174311 35.2216 9.06077 2.3466 -1 1 1
149 9 1 -0.050311 35.7342 8.32183 3.59425 -1 1 1
150 9 1 -0.091211 34.671 8.4231 4.7862 -1 1 1
151 9 3 0.033922 35.024 7.65149 19.3167 -1 1 0
152 9 3 0.033922 35.9636 6.23797 19.7837 -1 1 0
153 9 3 0.033922 36.6542 7.894 20.1016 -1 1 0
154 9 3 0.046089 34.0631 6.83876 0.559663 -1 1 1
155 9 3 0.046089 35.6005 6.736 1.36584 -1 1 1
156 9 4 0.121889 34.7096 9.45394 0.337434 -1 1 1
157 9 4 0.121889 35.2742 10.1252 2.55213 -1 1 1
158 9 3 0.046089 36.6969 8.68798 3.96278 -1 1 1
159 9 3 0.046089 35.914 7.29734 3.25572 -1 1 1
160 9 3 0.033922 33.6698 8.21517 4.39779 -1 1 1
161 9 3 0.033922 34.9519 7.73621 5.58984 -1 1 1
162 9 3 0.033922 34.8225 9.42507 5.19806 -1 1 1
163 10 1 -0.091211 7.94321 9.72768 6.59916 0 0 1
164 10 1 -0.050311 8.20595 8.36861 7.22661 0 0 1
165 10 2 -0.174311 9.61129 8.04222 6.86029 0 0 1
166 10 2 -0.174311 10.0711 7.01681 6.0627 0 0 1
167 10 1 -0.050311 9.16713 6.00591 5.3255 0 0 1
168 10 1 -0.091211 9.11609 6.25425 3.78956 0 0 1
169 10 3 0.033922 8.73007 10.4597 6.80282 0 0 1
170 10 3 0.033922 7.00428 10.0469 7.06077 0 0 1
171 10 3 0.033922 7.86266 9.59406 5.51644 0 0 1
172 10 3 0.046089 8.07902 8.45922 8.30934 0 0 1
173 10 3 0.046089 7.38115 7.72774 6.90172 0 0 1
174 10 4 0.121889 10.4395 8.5864 7.30286 0 0 1
175 10 4 0.121889 11.1442 6.90607 5.9442 0 0 1
176 10 3 0.046089 8.12055 6.0715 5.63685 0 0 1
177 10 3 0.046089 9.42873 4.96624 5.54273 0 0 1
178 10 3 0.033922 8.97893 7.3147 3.55896 0 0 1
179 10 3 0.033922 9.98428 5.74997 3.35537 0 0 1
180 10 3 0.033922 8.25029 5.79108 3.30744 0 0 1
181 11 1 -0.091211 -1.1488 10.8132 16.987 0 0 0
182 11 1 -0.050311 -0.679965 11.8597 18.0368 0 0 0
183 11 2 -0.174311 -1.0696 11.5557 19.4947 0 0 0
184 11 2 -0.174311 -1.01435 12.4653 20.5744 0 0 0
185 11 1 -0.050311 -0.94315 13.9619 20.387 0 0 0
186 11 1 -0.091211 -1.56835 14.7689 0.681665 0 0 1
187 11 3 0.033922 -0.67336 11.0599 16.0332 0 0 0
188 11 3 0.033922 -2.23683 10.8712 16.8899 0 0 0
189 11 3 0.033922 -0.87784 9.81314 17.3376 0 0 0
190 11 3 0.046089 0.405639 11.7374 17.9812 0 0 0
191 11 3 0.046089 -0.945606 12.9045 17.8519 0 0 0
192 11 4 0.121889 -1.40453 10.5401 19.6799 0 0 0
193 11 4 0.121889 -1.29378 12.1873 0.773083 0 0 1
194 11 3 0.046089 -1.46881 14.2124 19.4609 0 0 0
195 11 3 0.046089 0.081633 14.2786 20.1723 0 0 0
196 11 3 0.033922 -2.65386 14.64 0.721864 0 0 1
197 11 3 0.033922 -1.18311 14.5556 1.68302 0 0 1
198 11 3 0.033922 -1.30213 15.8047 0.451914 0 0 1
199 12 1 -0.091211 4.81586 8.21101 11.1804 0 0 0
200 12 1 -0.050311 3.60897 7.60183 11.8602 0 0 0
201 12 2 -0.174311 2.54424 7.62926 10.8111 0 0 0
202 12 2 -0.174311 1.40442 8.39289 10.7736 0 0 0
203 12 1 -0.050311 1.17943 9.57311 11.6766 0 0 0
204 12 1 -0.091211 0.265407 9.3743 12.9271 0 0 0
205 12 3 0.033922 5.70783 7.90565 11.7351 0 0 0
206 12 3 0.033922 4.73255 9.29978 11.2449 0 0 0
207 12 3 0.033922 4.97475 7.9341 10.1341 0 0 0
208 12 3 0.046089 3.74769 6.5656 12.182 0 0 0
209 12 3 0.046089 3.34646 8.17745 12.7526 0 0 0
210 12 4 0.121889 2.6204 7.00437 9.92692 0 0 0
211 12 4 0.121889 0.612039 8.27871 10.0407 0 0 0
212 12 3 0.046089 0.776023 10.4086 11.0971 0 0 0
213 12 3 0.046089 2.15941 9.78589 12.1135 0 0 0
214 12 3 0.033922 -0.747741 9.25526 12.5322 0 0 0
215 12 3 0.033922 0.569667 8.48244 13.4826 0 0 0
216 12 3 0.033922 0.309948 10.2551 13.5742 0 0 0
217 13 1 -0.091211 -1.44924 15.698 7.24928 0 0 1
218 13 1 -0.050311 -2.2247 15.8402 8.54404 0 0 1
219 13 2 -0.174311 -2.46981 14.6049 9.30798 0 0 1
220 13 2 -0.174311 -1.59301 14.0225 10.1816 0 0 1
221 13 1 -0.050311 -0.22122 14.5201 10.4839 0 0 1
222 13 1 -0.091211 0.680334 13.3666 10.7376 0 0 1
223 13 3 0.033922 -1.25133 16.6722 6.79278 0 0 1
224 13 3 0.033922 -1.88429 15.0474 6.48508 0 0 1
225 13 3 0.033922 -0.599895 15.1223 7.62835 0 0 1
226 13 3 0.046089 -1.64749 16.5003 9.19802 0 0 1
227 13 3 0.046089 -3.16793 16.3628 8.3601 0 0 1
228 13 4 0.121889 -3.45484 14.1759 9.15428 0 0 1
229 13 4 0.121889 -1.8132 13.0298 10.561 0 0 1
230 13 3 0.046089 -0.284727 15.2383 11.3065 0 0 1
231 13 3 0.046089 0.0518127 15.0417 9.5619 0 0 1
232 13 3 0.033922 0.503402 12.5803 9.99809 0 0 1
233 13 3 0.033922 1.74132 13.6313 10.7665 0 0 1
234 13 3 0.033922 0.411841 12.9489 11.7123 0 0 1
235 14 1 -0.091211 13.8017 8.45653 6.65433 0 0 0
236 14 1 -0.050311 14.3345 8.36851 5.27172 0 0 0
237 14 2 -0.174311 13.3275 8.10583 4.26849 0 0 0
238 14 2 -0.174311 13.3369 7.12461 3.37328 0 0 0
239 14 1 -0.050311 14.5305 6.2695 2.99781 0 0 0
240 14 1 -0.091211 14.2261 4.80013 2.9965 0 0 0
241 14 3 0.033922 12.9866 7.75663 6.86004 0 0 0
242 14 3 0.033922 13.3912 9.45073 6.85334 0 0 0
243 14 3 0.033922 14.6067 8.26335 7.36937 0 0 0
244 14 3 0.046089 14.9733 9.23257 5.06696 0 0 0
245 14 3 0.046089 15.0541 7.54717 5.33652 0 0 0
246 14 4 0.121889 12.3896 8.6456 4.35252 0 0 0
247 14 4 0.121889 12.3989 6.97282 2.84869 0 0 0
248 14 3 0.046089 15.3921 6.36788 3.6645 0 0 0
249 14 3 0.046089 14.7451 6.50768 1.95195 0 0 0
250 14 3 0.033922 14.2725 4.37698 4.00418 0 0 0
251 14 3 0.033922 13.2787 4.65036 2.47068 0 0 0
252 14 3 0.033922 15.0094 4.40143 2.34521 0 0 0
253 15 1 -0.091211 2.09125 3.18216 2.76805 0 1 1
254 15 1 -0.050311 2.60972 4.34754 1.98784 0 1 1
255 15 2 -0.174311 1.47918 5.36384 1.98944 0 1 1
256 15 2 -0.174311 1.19091 6.37226 1.03256 0 1 1
257 15 1 -0.050311 1.82308 6.60129 20.6269 0 1 0
258 15 1 -0.091211 1.19225 7.84245 20.0643 0 1 0
259 15 3 0.033922 1.62438 3.43625 3.72413 0 1 1
260 15 3 0.033922 2.9529 2.51769 2.88026 0 1 1
261 15 3 0.033922 1.35566 2.56708 2.2416 0 1 1
262 15 3 0.046089 3.52541 4.7284 2.44938 0 1 1
263 15 3 0.046089 2.94013 4.01026 1.00108 0 1 1
264 15 4 0.121889 0.813732 5.35588 2.84683 0 1 1
265 15 4 0.121889 0.367668 7.02363 1.30813 0 1 1
266 15 3 0.046089 1.82536 5.72107 19.9775 0 1 0
267 15 3 0.046089 2.8802 6.8264 20.7954 0 1 0
268 15 3 0.033922 0.145583 7.62503 19.8324 0 1 0
269 15 3 0.033922 1.29858 8.74071 20.6795 0 1 0
270 15 3 0.033922 1.62512 8.11577 19.0976 0 1 0
271 16 1 -0.091211 11.8771 4.48473 7.23538 0 1 0
272 16 1 -0.050311 12.6997 3.55073 8.07932 0 1 0
273 16 2 -0.174311 13.0968 2.2599 7.42825 0 1 0
274 16 2 -0.174311 13.0054 1.02938 7.91364 0 1 0
275 16 1 -0.050311 12.4758 0.732642 9.37163 0 1 0
276 16 1 -0.091211 13.2465 20.1128 10.0584 0 0 0
277 16 3 0.033922 11.4189 3.94356 6.40245 0 1 0
278 16 3 0.033922 12.5129 5.19966 6.70518 0 1 0
279 16 3 0.033922 11.2188 5.02219 7.92415 0 1 0
280 16 3 0.046089 13.6569 3.97712 8.39346 0 1 0
281 16 3 0.046089 12.0581 3.43816 8.9581 0 1 0
282 16 4 0.121889 13.4449 2.31133 6.40151 0 1 0
283 16 4 0.121889 13.2835 20.6563 7.25913 0 0 0
284 16 3 0.046089 11.4646 20.8134 9.17126 0 0 0
285 16 3 0.046089 12.3677 1.64259 9.96902 0 1 0
286 16 3 0.033922 13.5514 19.331 9.3567 0 0 0
287 16 3 0.033922 14.1769 20.52 10.4648 0 0 0
288 16 3 0.033922 12.65 19.7371 10.8949 0 0 0
289 17 1 -0.091211 8.10012 13.307 9.05433 0 0 0
290 17 1 -0.050311 8.58679 12.1091 9.8886 0 0 0
291 17 2 -0.174311 9.77634 12.5699 10.72 0 0 0
292 17 2 -0.174311 10.7702 11.7862 11.1456 0 0 0
293 17 1 -0.050311 10.8481 10.277 10.8388 0 0 0
294 17 1 -0.091211 11.9645 9.95619 9.89533 0 0 0
295 17 3 0.033922 7.13755 13.1606 8.55572 0 0 0
296 17 3 0.033922 8.79334 13.5664 8.24889 0 0 0
297 17 3 0.033922 7.92075 14.1569 9.71917 0 0 0
298 17 3 0.046089 7.79207 11.7529 10.5505 0 0 0
299 17 3 0.046089 8.92158 11.2876 9.24855 0 0 0
300 17 4 0.121889 9.94225 13.6012 11.0144 0 0 0
301 17 4 0.121889 11.5562 12.3005 11.6894 0 0 0
302 17 3 0.046089 9.9028 9.9236 10.4169 0 0 0
303 17 3 0.046089 11.0835 9.78456 11.7868 0 0 0
304 17 3 0.033922 11.7662 10.3465 8.89286 0 0 0
305 17 3 0.033922 12.8616 10.3968 10.34 0 0 0
306 17 3 0.033922 12.2284 8.89651 9.83233 0 0 0
307 18 1 -0.091211 34.9395 6.69442 15.8626 -1 0 1
308 18 1 -0.050311 35.0774 7.2776 14.4762 -1 0 1
309 18 2 -0.174311 36.6236 7.28197 14.1528 -1 0 1
310 18 2 -0.174311 37.3139 6.57896 13.195 -1 0 1
311 18 1 -0.050311 36.7229 5.62387 12.2879 -1 0 1
312 18 1 -0.091211 37.8918 4.72786 11.8061 -1 0 1
313 18 3 0.033922 34.1088 7.13856 16.4186 -1 0 1
314 18 3 0.033922 35.8294 6.76679 16.4946 -1 0 1
315 18 3 0.033922 34.6993 5.63822 15.7101 -1 0 1
316 18 3 0.046089 34.4761 6.78421 13.7071 -1 0 1
317 18 3 0.046089 34.8275 8.33984 14.4006 -1 0 1
318 18 4 0.121889 37.2821 7.93137 14.7208 -1 0 1
319 18 4 0.121889 38.3986 6.61531 13.202 -1 0 1
320 18 3 0.046089 36.3206 6.14232 11.4127 -1 0 1
321 18 3 0.046089 35.9433 5.0615 12.8099 -1 0 1
322 18 3 0.033922 38.4918 5.34314 11.1293 -1 0 1
323 18 3 0.033922 38.6277 4.46451 12.5715 -1 0 1
324 18 3 0.033922 37.5156 3.83033 11.3067 -1 0 1
325 19 1 -0.091211 6.86722 10.3773 20.7798 0 0 -1
326 19 1 -0.050311 7.41403 10.735 19.3135 0 0 -1
327 19 2 -0.174311 8.29407 9.68791 18.6426 0 0 -1
328 19 2 -0.174311 9.56829 9.85135 18.041 0 0 -1
329 19 1 -0.050311 10.1413 11.2732 17.771 0 0 -1
330 19 1 -0.091211 11.2915 11.4988 18.7091 0 0 -1
331 19 3 0.033922 6.24589 11.2183 0.288771 0 0 0
332 19 3 0.033922 7.68911 10.2439 0.67668 0 0 0
333 19 3 0.033922 6.23239 9.4943 20.6625 0 0 -1
334 19 3 0.046089 6.68284 11.0108 18.5481 0 0 -1
335 19 3 0.046089 8.05808 11.6077 19.4556 0 0 -1
336 19 4 0.121889 7.8625 8.69214 18.6535 0 0 -1
337 19 4 0.121889 10.0445 8.95957 17.6462 0 0 -1
338 19 3 0.046089 9.33122 12.0053 17.8373 0 0 -1
339 19 3 0.046089 10.6122 11.3137 16.7845 0 0 -1
340 19 3 0.033922 12.0703 10.7391 18.5957 0 0 -1
341 19 3 0.033922 11.7762 12.4532 18.4839 0 0 -1
342 19 3 0.033922 10.9247 11.5318 19.7391 0 0 -1
343 20 1 -0.091211 13.535 17.9802 6.5552 0 -1 0
344 20 1 -0.050311 14.2534 18.6126 5.32732 0 -1 0
345 20 2 -0.174311 13.5045 18.6599 3.98695 0 -1 0
346 20 2 -0.174311 14.1743 19.1431 2.83877 0 -1 0
347 20 1 -0.050311 15.6734 19.2496 2.7038 0 -1 0
348 20 1 -0.091211 15.9539 20.7691 2.6874 0 -1 0
349 20 3 0.033922 13.3687 16.9182 6.35254 0 -1 0
350 20 3 0.033922 12.608 18.5063 6.80112 0 -1 0
351 20 3 0.033922 14.1453 18.0806 7.45745 0 -1 0
352 20 3 0.046089 14.5234 19.6286 5.62939 0 -1 0
353 20 3 0.046089 15.1511 17.9876 5.32262 0 -1 0
354 20 4 0.121889 12.4222 18.5785 3.99748 0 -1 0
355 20 4 0.121889 13.6373 19.3394 1.91617 0 -1 0
356 20 3 0.046089 15.8114 18.8207 1.70702 0 -1 0
357 20 3 0.046089 16.2864 18.7001 3.42408 0 -1 0
358 20 3 0.033922 15.1881 0.835401 2.09843 0 0 0
359 20 3 0.033922 15.9085 0.720446 3.70527 0 0 0
360 20 3 0.033922 16.9044 20.9783 2.18806 0 -1 0
361 21 1 -0.091211 43.5491 1.60769 1.54278 -1 0 1
362 21 1 -0.050311 -4.53619 2.33893 2.63896 0 0 1
363 21 2 -0.174311 -3.13237 2.69674 2.20987 0 0 1
364 21 2 -0.174311 -2.04905 2.28418 2.82724 0 0 1
365 21 1 -0.050311 -2.00443 1.45148 4.09411 0 0 1
366 21 1 -0.091211 -1.86797 20.434 3.67151 0 -1 1
367 21 3 0.033922 43.7412 2.1917 0.638007 -1 0 1
368 21 3 0.033922 42.459 1.59672 1.63336 -1 0 1
369 21 3 0.033922 -4.86093 0.615804 1.30913 0 0 1
370 21 3 0.046089 43.8438 3.3297 2.81801 -1 0 1
371 21 3 0.046089 -4.60988 1.78838 3.58134 0 0 1
372 21 4 0.121889 -3.09741 3.50214 1.48319 0 0 1
373 21 4 0.121889 -1.07479 2.62724 2.49391 0 0 1
374 21 3 0.046089 -2.87616 1.60558 4.73671 0 0 1
375 21 3 0.046089 -1.08672 1.69395 4.63779 0 0 1
376 21 3 0.033922 -0.880779 20.3123 3.21629 0 -1 1
377 21 3 0.033922 -1.89504 19.8215 4.5774 0 -1 1
378 21 3 0.033922 -2.72611 20.1246 3.06784 0 -1 1
379 22 1 -0.091211 9.47 15.2919 18.8357 0 -1 0
380 22 1 -0.050311 8.51318 16.1634 18.0488 0 -1 0
381 22 2 -0.174311 8.97212 16.2541 16.6284 0 -1 0
382 22 2 -0.174311 8.54959 15.457 15.6248 0 -1 0
383 22 1 -0.050311 7.54742 14.3338 15.6849 0 -1 0
384 22 1 -0.091211 7.88144 13.3121 14.5849 0 -1 0
385 22 3 0.033922 9.291 15.4286 19.9062 0 -1 0
386 22 3 0.033922 10.5263 15.542 18.7007 0 -1 0
387 22 3 0.033922 9.27762 14.2806 18.4658 0 -1 0
388 22 3 0.046089 7.48532 15.7901 18.0751 0 -1 0
389 22 3 0.046089 8.50862 17.1362 18.5491 0 -1 0
390 22 4 0.121889 9.85402 16.8507 16.4179 0 -1 0
391 22 4 0.121889 9.15209 15.6546 14.744 0 -1 0
392 22 3 0.046089 6.61426 14.8753 15.5046 0 -1 0
393 22 3 0.046089 7.45831 13.8988 16.6846 0 -1 0
394 22 3 0.033922 8.7622 12.694 14.7821 0 -1 0
395 22 3 0.033922 7.09314 12.5542 14.5568 0 -1 0
396 22 3 0.033922 8.11883 13.7597 13.6155 0 -1 0
397 23 1 -0.091211 3.0599 13.9872 2.66127 0 0 0
398 23 1 -0.050311 2.52555 12.9224 3.65822 0 0 0
399 23 2 -0.174311 1.14018 13.3035 4.13412 0 0 0
400 23 2 -0.174311 0.0543166 12.521 4.21912 0 0 0
401 23 1 -0.050311 0.0191757 11.094 3.84762 0 0 0
402 23 1 -0.091211 -1.39394 10.634 3.64715 0 0 0
403 23 3 0.033922 3.1822 14.9669 3.13227 0 0 0
404 23 3 0.033922 2.4235 14.167 1.7899 0 0 0
405 23 3 0.033922 3.99887 13.6098 2.24594 0 0 0
406 23 3 0.046089 2.60447 11.9855 3.09921 0 0 0
407 23 3 0.046089 3.30515 12.8339 4.42044 0 0 0
408 23 4 0.121889 0.998102 14.362 4.3269 0 0 0
409 23 4 0.121889 -0.946515 12.8296 4.50381 0 0 0
410 23 3 0.046089 0.516947 10.4776 4.60184 0 0 0
411 23 3 0.046089 0.583474 10.9832 2.91708 0 0 0
412 23 3 0.033922 -1.266 9.56184 3.47186 0 0 0
413 23 3 0.033922 -1.96368 10.6782 4.57992 0 0 0
414 23 3 0.033922 -1.93434 11.0886 2.81178 0 0 0
415 24 1 -0.091211 1.636 17.6438 3.81094 0 0 0
416 24 1 -0.050311 2.90067 18.4022 3.90763 0 0 0
417 24 2 -0.174311 3.58218 18.0582 2.55574 0 0 0
418 24 2 -0.174311 4.95158 18.0601 2.37217 0 0 0
419 24 1 -0.050311 6.03328 18.2416 3.56885 0 0 0
420 24 1 -0.091211 7.34047 18.8978 3.1334 0 0 0
421 24 3 0.033922 1.05483 17.8755 2.91364 0 0 0
422 24 3 0.033922 1.03414 17.8091 4.70929 0 0 0
423 24 3 0.033922 1.8332 16.5699 3.74482 0 0 0
424 24 3 0.046089 2.61297 19.4453 4.06797 0 0 0
425 24 3 0.046089 3.46152 18.1579 4.81449 0 0 0
426 24 4 0.121889 2.94806 17.8953 1.69009 0 0 0
427 24 4 0.121889 5.31406 17.7885 1.38584 0 0 0
428 24 3 0.046089 6.30287 17.251 3.94653 0 0 0
429 24 3 0.046089 5.5411 18.9264 4.26555 0 0 0
430 24 3 0.033922 7.97869 18.3609 2.42563 0 0 0
431 24 3 0.033922 6.94656 19.7359 2.55106 0 0 0
432 24 3 0.033922 7.8806 19.2533 4.01571 0 0 0
433 25 1 -0.091211 -0.103595 3.54377 18.0322 0 0 0
434 25 1 -0.050311 -0.397162 3.50868 19.5142 0 0 0
435 25 2 -0.174311 -1.34781 2.38697 19.7657 0 0 0
436 25 2 -0.174311 -1.2815 1.22154 20.4236 0 0 0
437 25 1 -0.050311 0.0319037 0.772743 20.9726 0 0 0
438 25 1 -0.091211 -0.124644 19.643 20.861 0 -1 0
439 25 3 0.033922 0.476552 2.65128 17.7804 0 0 0
440 25 3 0.033922 0.384076 4.44822 17.6571 0 0 0
441 25 3 0.033922 -1.05061 3.43777 17.4951 0 0 0
442 25 3 0.046089 0.502564 3.40935 20.1283 0 0 0
443 25 3 0.046089 -0.909596 4.40733 19.8697 0 0 0
444 25 4 0.121889 -2.32561 2.67541 19.3933 0 0 0
445 25 4 0.121889 -2.12912 20.9922 20.3758 0 -1 0
446 25 3 0.046089 0.0740883 0.950969 1.23857 0 0 1
447 25 3 0.046089 0.864699 1.23918 20.4384 0 0 0
448 25 3 0.033922 -0.518422 19.3999 19.8699 0 -1 0
449 25 3 0.033922 0.885808 19.2302 20.9324 0 -1 0
450 25 3 0.033922 -0.682444 19.3147 0.93035 0 -1 1
451 26 1 -0.091211 -3.66689 13.8128 4.34731 0 -1 1
452 26 1 -0.050311 -4.88267 14.4528 3.72677 0 -1 1
453 26 2 -0.174311 42.7861 13.3956 3.64633 -1 -1 1
454 26 2 -0.174311 41.5364 13.7813 3.39723 -1 -1 1
455 26 1 -0.050311 41.0232 15.1992 3.0733 -1 -1 1
456 26 1 -0.091211 39.5256 15.1272 3.3311 -1 -1 1
457 26 3 0.033922 -2.72405 14.2756 4.0417 0 -1 1
458 26 3 0.033922 -3.58145 12.7545 4.08396 0 -1 1
459 26 3 0.033922 -3.78374 13.8711 5.43339 0 -1 1
460 26 3 0.046089 43.6626 15.3329 4.32101 -1 -1 1
461 26 3 0.046089 -4.74424 14.7883 2.69484 0 -1 1
462 26 4 0.121889 42.8458 12.3286 3.83553 -1 -1 1
463 26 4 0.121889 40.8247 12.9621 3.41656 -1 -1 1
464 26 3 0.046089 41.1992 15.5971 2.06962 -1 -1 1
465 26 3 0.046089 41.5348 15.904 3.73519 -1 -1 1
466 26 3 0.033922 38.9742 16.0297 3.05177 -1 -1 1
467 26 3 0.033922 39.0794 14.3116 2.75466 -1 -1 1
468 26 3 0.033922 39.4199 14.9594 4.40688 -1 -1 1
469 27 1 -0.091211 16.8523 17.0545 16.6307 0 0 -1
470 27 1 -0.050311 17.3459 16.3055 17.8628 0 0 -1
471 27 2 -0.174311 16.4113 15.2438 18.2596 0 0 -1
472 27 2 -0.174311 16.4463 14.5382 19.4577 0 0 -1
473 27 1 -0.050311 17.4885 14.5906 20.5023 0 0 -1
474 27 1 -0.091211 18.1551 13.2156 20.5518 0 0 -1
475 27 3 0.033922 17.8051 17.4207 16.2374 0 0 -1
476 27 3 0.033922 16.2871 17.9049 17.023 0 0 -1
477 27 3 0.033922 16.2774 16.4467 15.9259 0 0 -1
478 27 3 0.046089 18.2151 15.6999 17.59 0 0 -1
479 27 3 0.046089 17.6089 16.9356 18.7175 0 0 -1
480 27 4 0.121889 15.5382 15.0157 17.6565 0 0 -1
481 27 4 0.121889 15.6581 13.8269 19.6827 0 0 -1
482 27 3 0.046089 17.0081 14.917 0.616723 0 0 0
483 27 3 0.046089 18.2851 15.3211 20.334 0 0 -1
484 27 3 0.033922 18.7881 13.1447 19.6625 0 0 -1
485 27 3 0.033922 18.7221 13.1145 0.669215 0 0 0
486 27 3 0.033922 17.4307 12.3962 20.5666 0 0 -1
487 28 1 -0.091211 10.2704 19.5852 20.8928 0 -1 -1
488 28 1 -0.050311 10.5152 20.138 19.5051 0 -1 -1
489 28 2 -0.174311 11.96 20.4011 19.1998 0 -1 -1
490 28 2 -0.174311 13.0153 19.4451 19.0067 0 -1 -1
491 28 1 -0.050311 12.8561 17.9489 18.9583 0 -1 -1
492 28 1 -0.091211 13.7607 17.2798 19.9989 0 -1 -1
493 28 3 0.033922 9.34508 19.0066 20.9675 0 -1 -1
494 28 3 0.033922 10.2598 20.4104 0.798235 0 -1 0
495 28 3 0.033922 11.1131 18.9308 0.321421 0 -1 0
496 28 3 0.046089 10.1525 19.3941 18.7899 0 -1 -1
497 28 3 0.046089 9.909 21.0295 19.3197 0 -1 -1
498 28 4 0.121889 12.3944 0.933775 19.3726 0 0 -1
499 28 4 0.121889 14.0297 19.7801 18.8148 0 -1 -1
500 28 3 0.046089 13.2128 17.6391 17.9717 0 -1 -1
501 28 3 0.046089 11.8507 17.5982 19.2089 0 -1 -1
502 28 3 0.033922 13.503 16.2267 19.8542 0 -1 -1
503 28 3 0.033922 14.8394 17.3921 19.8565 0 -1 -1
504 28 3 0.033922 13.4295 17.6299 20.9809 0 -1 -1
505 29 1 -0.091211 4.82919 8.74294 2.88339 0 0 0
506 29 1 -0.050311 3.73975 8.18155 3.73242 0 0 0
507 29 2 -0.174311 4.22952 7.78887 5.1004 0 0 0
508 29 2 -0.174311 3.37476 7.05397 5.9132 0 0 0
509 29 1 -0.050311 1.9881 6.56812 5.53761 0 0 0
510 29 1 -0.091211 1.11113 6.56822 6.77454 0 0 0
511 29 3 0.033922 5.73577 8.14651 2.74579 0 0 0
512 29 3 0.033922 4.97166 9.73626 3.31875 0 0 0
513 29 3 0.033922 4.47962 8.81096 1.84908 0 0 0
514 29 3 0.046089 2.94326 8.92735 3.80944 0 0 0
515 29 3 0.046089 3.40933 7.26922 3.22741 0 0 0
516 29 4 0.121889 5.2121 8.15835 5.37606 0 0 0
517 29 4 0.121889 3.69509 6.68858 6.8837 0 0 0
518 29 3 0.046089 2.19352 5.56764 5.14598 0 0 0
519 29 3 0.046089 1.46586 7.15163 4.77383 0 0 0
520 29 3 0.033922 1.54947 6.02391 7.61607 0 0 0
521 29 3 0.033922 1.07853 7.61793 7.08044 0 0 0
522 29 3 0.033922 0.130261 6.18411 6.4797 0 0 0
523 30 1 -0.091211 -0.0990635 18.6708 10.5024 0 0 1
524 30 1 -0.050311 0.869461 19.4534 9.60712 0 0 1
525 30 2 -0.174311 0.345451 19.4813 8.19139 0 0 1
526 30 2 -0.174311 0.739534 20.4568 7.34074 0 0 1
527 30 1 -0.050311 1.78335 1.10703 7.57717 0 1 1
528 30 1 -0.091211 1.81271 2.20071 6.4948 0 1 1
529 30 3 0.033922 0.0957124 17.5991 10.4025 0 0 1
530 30 3 0.033922 -1.13376 18.9501 10.2834 0 0 1
531 30 3 0.033922 0.160114 18.9699 11.5222 0 0 1
532 30 3 0.046089 0.889547 20.4963 9.93627 0 0 1
533 30 3 0.046089 1.85838 18.9871 9.6412 0 0 1
534 30 4 0.121889 -0.356512 18.7263 7.85197 0 0 1
535 30 4 0.121889 0.269182 20.4911 6.36319 0 0 1
536 30 3 0.046089 2.78517 0.669495 7.61581 0 1 1
537 30 3 0.046089 1.50288 1.55406 8.53534 0 1 1
538 30 3 0.033922 2.53689 2.98121 6.74566 0 1 1
539 30 3 0.033922 2.19043 1.72957 5.58267 0 1 1
540 30 3 0.033922 0.802345 2.5711 6.29847 0 1 1
541 31 1 -0.091211 23.0471 20.8472 20.4743 0 0 0
542 31 1 -0.050311 23.0617 19.3489 20.3597 0 0 0
543 31 2 -0.174311 21.8404 18.8439 19.5418 0 0 0
544 31 2 -0.174311 21.2433 17.6203 19.7692 0 0 0
545 31 1 -0.050311 21.8653 16.5122 20.6682 0 0 0
546 31 1 -0.091211 21.8569 15.1344 19.9356 0 0 0
547 31 3 0.033922 23.9328 0.806697 20.9713 0 1 0
548 31 3 0.033922 22.1832 0.643933 0.287053 0 1 1
549 31 3 0.033922 22.9473 0.908903 19.5109 0 1 0
550 31 3 0.046089 23.9122 19.0077 19.7624 0 0 0
551 31 3 0.046089 23.0405 19.0128 0.587979 0 0 1
552 31 4 0.121889 21.4823 19.4947 18.7505 0 0 0
553 31 4 0.121889 20.2628 17.5024 19.319 0 0 0
554 31 3 0.046089 21.1585 16.4526 0.688515 0 0 1
555 31 3 0.046089 22.8154 16.7997 21.1277 0 0 0
556 31 3 0.033922 20.8645 14.6953 19.7979 0 0 0
557 31 3 0.033922 22.2795 15.2118 18.9296 0 0 0
558 31 3 0.033922 22.4947 14.4849 20.5422 0 0 0
559 32 1 -0.091211 17.0965 1.02561 19.6337 0 1 -1
560 32 1 -0.050311 16.0883 1.94946 19.0466 0 1 -1
561 32 2 -0.174311 16.7245 3.11691 18.2709 0 1 -1
562 32 2 -0.174311 16.0785 4.10601 17.546 0 1 -1
563 32 1 -0.050311 14.587 4.02394 17.2046 0 1 -1
564 32 1 -0.091211 14.1615 5.51386 17.0797 0 1 -1
565 32 3 0.033922 16.6503 20.5681 20.0575 0 0 -1
566 32 3 0.033922 17.681 1.56501 20.3847 0 1 -1
567 32 3 0.033922 17.7148 21.1533 18.7897 0 0 -1
568 32 3 0.046089 15.4374 1.31819 18.4347 0 1 -1
569 32 3 0.046089 15.4702 2.37857 19.8406 0 1 -1
570 32 4 0.121889 17.7858 3.26098 18.4464 0 1 -1
571 32 4 0.121889 16.5882 4.98555 17.1658 0 1 -1
572 32 3 0.046089 14.1167 3.56821 18.0808 0 1 -1
573 32 3 0.046089 14.3912 3.42117 16.313 0 1 -1
574 32 3 0.033922 13.0692 5.57098 17.0856 0 1 -1
575 32 3 0.033922 14.5591 6.11778 17.9006 0 1 -1
576 32 3 0.033922 14.4961 5.82307 16.0852 0 1 -1
577 33 1 -0.091211 14.9676 12.9409 8.41774 0 0 0
578 33 1 -0.050311 15.0846 12.0593 9.72459 0 0 0
579 33 2 -0.174311 16.3522 12.3441 10.4779 0 0 0
580 33 2 -0.174311 17.0382 11.3987 11.1475 0 0 0
581 33 1 -0.050311 16.5527 10.0045 11.4175 0 0 0
582 33 1 -0.091211 17.3442 9.27451 12.4812 0 0 0
583 33 3 0.033922 15.6986 12.55 7.70399 0 0 0
584 33 3 0.033922 15.1319 14.0001 8.63593 0 0 0
585 33 3 0.033922 13.9597 12.708 8.06209 0 0 0
586 33 3 0.046089 14.2519 12.4013 10.346 0 0 0
587 33 3 0.046089 15.0579 10.9964 9.46774 0 0 0
588 33 4 0.121889 16.8255 13.3115 10.3438 0 0 0
589 33 4 0.121889 17.9546 11.7059 11.6412 0 0 0
590 33 3 0.046089 16.6502 9.37968 10.525 0 0 0
591 33 3 0.046089 15.4855 10.026 11.6565 0 0 0
592 33 3 0.033922 16.9459 9.5294 13.4676 0 0 0
593 33 3 0.033922 17.3802 8.19585 12.3032 0 0 0
594 33 3 0.033922 18.3701 9.64251 12.5743 0 0 0
595 34 1 -0.091211 11.2012 15.7442 8.85218 0 0 0
596 34 1 -0.050311 12.6742 15.8472 9.21168 0 0 0
597 34 2 -0.174311 12.9649 15.1104 10.5215 0 0 0
598 34 2 -0.174311 14.2809 15.1735 11.1083 0 0 0
599 34 1 -0.050311 15.2957 16.2247 10.6938 0 0 0
600 34 1 -0.091211 15.3308 17.3476 11.6461 0 0 0
601 34 3 0.033922 10.6255 16.2208 9.65096 0 0 0
602 34 3 0.033922 10.9072 14.698 8.72795 0 0 0
603 34 3 0.033922 10.9087 16.1541 7.88107 0 0 0
604 34 3 0.046089 13.2829 15.419 8.40997 0 0 0
605 34 3 0.046089 12.9307 16.9004 9.35821 0 0 0
606 34 4 0.121889 12.194 14.4186 10.8455 0 0 0
607 34 4 0.121889 14.4724 14.4523 11.8965 0 0 0
608 34 3 0.046089 15.2058 16.5858 9.66511 0 0 0
609 34 3 0.046089 16.2492 15.7052 10.5615 0 0 0
610 34 3 0.033922 14.3839 17.8874 11.7383 0 0 0
611 34 3 0.033922 15.5366 16.9252 12.6339 0 0 0
612 34 3 0.033922 16.0708 18.0416 11.237 0 0 0
613 35 1 -0.091211 38.2922 15.8664 20.4639 -1 0 0
614 35 1 -0.050311 37.5764 14.5766 19.9285 -1 0 0
615 35 2 -0.174311 38.6018 13.463 19.7814 -1 0 0