ITEM: TIMESTEP
42500
ITEM: NUMBER OF ATOMS
1800
ITEM: BOX BOUNDS pp pp pp
-9.1714951738481076e-01 3.9725165017384469e+01
-1.2598216100075561e+00 2.2868477110008072e+01
-7.2763377097150084e-02 2.1326496877097107e+01
ITEM: ATOMS id mol type q x y z ix iy iz
1 1 1 -0.091211 7.68923 18.4663 10.4297 0 -1 0
2 1 1 -0.050311 8.0887 19.6022 9.43325 0 -1 0
3 1 2 -0.174311 6.78004 20.0635 8.80835 0 -1 0
4 1 2 -0.174311 6.5866 21.191 8.04528 0 -1 0
5 1 1 -0.050311 7.65316 22.1422 7.64878 0 -1 0
6 1 1 -0.091211 7.65262 22.0996 6.11207 0 -1 0
7 1 3 0.033922 7.28013 18.8793 11.3563 0 -1 0
8 1 3 0.033922 8.58303 17.9328 10.7662 0 -1 0
9 1 3 0.033922 6.94774 17.7849 10.0025 0 -1 0
10 1 3 0.046089 8.5024 20.4752 9.94654 0 -1 0
11 1 3 0.046089 8.84703 19.2512 8.72732 0 -1 0
12 1 4 0.121889 5.90134 19.4438 8.95626 0 -1 0
13 1 4 0.121889 5.54635 21.2657 7.74481 0 -1 0
14 1 3 0.046089 8.63467 21.8116 8.00082 0 -1 0
15 1 3 0.046089 7.43858 -0.965596 7.97934 0 0 0
16 1 3 0.033922 6.69596 22.4096 5.68156 0 -1 0
17 1 3 0.033922 8.47606 -1.36141 5.8413 0 0 0
18 1 3 0.033922 7.92266 21.1282 5.68771 0 -1 0
19 2 1 -0.091211 8.48676 1.60612 18.0751 0 0 0
20 2 1 -0.050311 10.0146 1.38248 17.915 0 0 0
21 2 2 -0.174311 10.4249 -0.000728178 17.5262 0 0 0
22 2 2 -0.174311 11.6755 -0.390049 17.1805 0 0 0
23 2 1 -0.050311 12.8894 0.495101 17.2338 0 0 0
24 2 1 -0.091211 13.9569 0.0192531 18.2687 0 0 0
25 2 3 0.033922 8.14418 1.02876 18.9388 0 0 0
26 2 3 0.033922 8.00351 1.32954 17.1336 0 0 0
27 2 3 0.033922 8.0455 2.59315 18.2417 0 0 0
28 2 3 0.046089 10.4668 2.11368 17.2386 0 0 0
29 2 3 0.046089 10.498 1.62382 18.8662 0 0 0
30 2 4 0.121889 9.63176 -0.736985 17.609 0 0 0
31 2 4 0.121889 11.84 22.7168 16.8525 0 -1 0
32 2 3 0.046089 12.6122 1.48452 17.6092 0 0 0
33 2 3 0.046089 13.3609 0.499476 16.2467 0 0 0
34 2 3 0.033922 14.9653 0.428421 18.1581 0 0 0
35 2 3 0.033922 13.5314 0.201591 19.2598 0 0 0
36 2 3 0.033922 14.1744 -1.04922 18.1806 0 0 0
37 3 1 -0.091211 6.17931 9.89788 6.43065 0 0 0
38 3 1 -0.050311 5.34077 10.1191 7.68066 0 0 0
39 3 2 -0.174311 4.68356 8.86469 8.28981 0 0 0
40 3 2 -0.174311 4.42498 8.68776 9.64424 0 0 0
41 3 1 -0.050311 4.54644 9.69189 10.7603 0 0 0
42 3 1 -0.091211 3.85905 9.20427 12.0835 0 0 0
43 3 3 0.033922 7.11206 9.35581 6.61163 0 0 0
44 3 3 0.033922 6.417 10.862 5.97158 0 0 0
45 3 3 0.033922 5.63955 9.35317 5.65054 0 0 0
46 3 3 0.046089 5.90166 10.7769 8.35094 0 0 0
47 3 3 0.046089 4.49912 10.7427 7.36553 0 0 0
48 3 4 0.121889 4.52912 8.05553 7.58309 0 0 0
49 3 4 0.121889 4.06821 7.68658 9.86435 0 0 0
50 3 3 0.046089 4.29732 10.7285 10.5152 0 0 0
51 3 3 0.046089 5.60923 9.76843 11.0077 0 0 0
52 3 3 0.033922 4.12456 9.94232 12.846 0 0 0
53 3 3 0.033922 2.78012 9.04706 11.9952 0 0 0
54 3 3 0.033922 4.2932 8.2648 12.4379 0 0 0
55 4 1 -0.091211 4.34633 1.46924 8.1304 0 0 0
56 4 1 -0.050311 3.82963 0.771951 6.84699 0 0 0
57 4 2 -0.174311 4.90235 0.840094 5.74902 0 0 0
58 4 2 -0.174311 4.7244 1.10318 4.40874 0 0 0
59 4 1 -0.050311 3.40267 1.37194 3.73188 0 0 0
60 4 1 -0.091211 3.43076 2.55421 2.85242 0 0 0
61 4 3 0.033922 3.81846 1.52058 9.0871 0 0 0
62 4 3 0.033922 4.34333 2.51991 7.82576 0 0 0
63 4 3 0.033922 5.37486 1.155 8.33034 0 0 0
64 4 3 0.046089 3.65849 -0.293807 7.02476 0 0 0
65 4 3 0.046089 2.83893 1.1831 6.63233 0 0 0
66 4 4 0.121889 5.90414 0.612949 6.09947 0 0 0
67 4 4 0.121889 5.53335 1.27198 3.70512 0 0 0
68 4 3 0.046089 2.52023 1.34691 4.37783 0 0 0
69 4 3 0.046089 3.23104 0.519193 3.06853 0 0 0
70 4 3 0.033922 2.45018 2.70238 2.3908 0 0 0
71 4 3 0.033922 3.68471 3.42206 3.46807 0 0 0
72 4 3 0.033922 4.18412 2.38484 2.07759 0 0 0
73 5 1 -0.091211 -0.709979 1.12466 1.21479 0 0 0
74 5 1 -0.050311 39.1529 1.97698 2.2193 -1 0 0
75 5 2 -0.174311 -0.459598 2.8403 3.00753 0 0 0
76 5 2 -0.174311 -0.192272 4.18474 2.81482 0 0 0
77 5 1 -0.050311 -0.887701 5.03591 1.84279 0 0 0
78 5 1 -0.091211 39.0463 6.12219 2.60636 -1 0 0
79 5 3 0.033922 39.2912 0.343858 0.795349 -1 0 0
80 5 3 0.033922 0.105789 0.639754 1.75885 0 0 0
81 5 3 0.033922 -0.283456 1.74788 0.423391 0 0 0
82 5 3 0.046089 38.4034 2.58227 1.70125 -1 0 0
83 5 3 0.046089 38.6994 1.3274 2.97358 -1 0 0
84 5 4 0.121889 0.0837825 2.35493 3.81198 0 0 0
85 5 4 0.121889 0.587594 4.57098 3.46337 0 0 0
86 5 3 0.046089 39.1069 4.4635 1.17244 -1 0 0
87 5 3 0.046089 -0.113179 5.48015 1.21082 0 0 0
88 5 3 0.033922 38.655 6.92087 1.96949 -1 0 0
89 5 3 0.033922 38.2616 5.72152 3.25457 -1 0 0
90 5 3 0.033922 -0.866023 6.51301 3.32123 0 0 0
91 6 1 -0.091211 12.9714 0.502418 0.708495 0 0 1
92 6 1 -0.050311 12.0167 1.4392 21.4731 0 0 0
93 6 2 -0.174311 12.5816 2.86557 0.281057 0 0 1
94 6 2 -0.174311 11.7038 3.94892 0.160079 0 0 1
95 6 1 -0.050311 10.2578 3.97769 21.1262 0 0 0
96 6 1 -0.091211 9.70605 5.33086 0.120501 0 0 1
97 6 3 0.033922 13.2319 0.692537 1.75373 0 0 1
98 6 3 0.033922 13.9356 0.51655 0.192193 0 0 1
99 6 3 0.033922 12.5595 -0.510635 0.679845 0 0 1
100 6 3 0.046089 11.9773 1.17211 20.4131 0 0 0
101 6 3 0.046089 11.0609 1.27865 0.581053 0 0 1
102 6 4 0.121889 13.6091 3.06206 0.570266 0 0 1
103 6 4 0.121889 12.2306 4.87213 0.379724 0 0 1
104 6 3 0.046089 9.66438 3.1533 0.132978 0 0 1
105 6 3 0.046089 10.2358 3.88468 20.0365 0 0 0
106 6 3 0.033922 8.61312 5.31065 21.4789 0 0 0
107 6 3 0.033922 10.0063 5.61828 1.13233 0 0 1
108 6 3 0.033922 10.1097 6.06039 20.8116 0 0 0
109 7 1 -0.091211 34.5243 16.3457 7.96443 -1 0 0
110 7 1 -0.050311 35.0081 17.4793 7.02938 -1 0 0
111 7 2 -0.174311 36.3119 18.0567 7.44387 -1 0 0
112 7 2 -0.174311 37.0539 18.8757 6.64559 -1 0 0
113 7 1 -0.050311 36.7948 19.151 5.18632 -1 0 0
114 7 1 -0.091211 38.0572 19.5917 4.48505 -1 0 0
115 7 3 0.033922 33.9556 16.7539 8.80507 -1 0 0
116 7 3 0.033922 35.3294 15.7195 8.35954 -1 0 0
117 7 3 0.033922 33.8963 15.6299 7.42601 -1 0 0
118 7 3 0.046089 34.9372 17.0697 6.01757 -1 0 0
119 7 3 0.046089 34.2909 18.2971 7.14549 -1 0 0
120 7 4 0.121889 36.5571 17.8754 8.48549 -1 0 0
121 7 4 0.121889 37.8857 19.3748 7.13224 -1 0 0
122 7 3 0.046089 35.9579 19.8505 5.10307 -1 0 0
123 7 3 0.046089 36.4184 18.2433 4.70558 -1 0 0
124 7 3 0.033922 38.8398 18.8274 4.47143 -1 0 0
125 7 3 0.033922 37.8612 19.8937 3.45211 -1 0 0
126 7 3 0.033922 38.5543 20.4296 4.98245 -1 0 0
127 8 1 -0.091211 1.88039 7.9694 18.8983 0 0 0
128 8 1 -0.050311 1.45994 6.86531 17.8997 0 0 0
129 8 2 -0.174311 2.29979 6.99974 16.7526 0 0 0
130 8 2 -0.174311 3.13127 6.02702 16.293 0 0 0
131 8 1 -0.050311 3.5011 4.64423 16.9264 0 0 0
132 8 1 -0.091211 3.22982 3.5613 15.9619 0 0 0
133 8 3 0.033922 1.17707 8.00626 19.7353 0 0 0
134 8 3 0.033922 1.97858 8.90438 18.339 0 0 0
135 8 3 0.033922 2.86576 7.7483 19.3188 0 0 0
136 8 3 0.046089 1.49367 5.8599 18.3295 0 0 0
137 8 3 0.046089 0.407151 7.02961 17.6523 0 0 0
138 8 4 0.121889 2.26023 7.91607 16.1722 0 0 0
139 8 4 0.121889 3.59289 6.26059 15.3389 0 0 0
140 8 3 0.046089 3.06744 4.428 17.9071 0 0 0
141 8 3 0.046089 4.57669 4.6764 17.123 0 0 0
142 8 3 0.033922 3.70591 2.65052 16.3368 0 0 0
143 8 3 0.033922 2.1537 3.41602 15.8298 0 0 0
144 8 3 0.033922 3.62606 3.64683 14.9459 0 0 0
145 9 1 -0.091211 -0.781527 11.6551 0.0674715 0 0 1
146 9 1 -0.050311 39.0847 12.9275 0.237079 -1 0 1
147 9 2 -0.174311 -0.903058 14.1355 21.0449 0 0 0
148 9 2 -0.174311 39.3092 15.4294 21.1095 -1 0 0
149 9 1 -0.050311 38.1487 15.8532 0.597905 -1 0 1
150 9 1 -0.091211 38.5697 16.6707 1.82063 -1 0 1
151 9 3 0.033922 -0.887366 11.2913 20.4406 0 0 0
152 9 3 0.033922 39.4023 10.918 0.733135 -1 0 1
153 9 3 0.033922 0.274691 11.6812 0.350864 0 0 1
154 9 3 0.046089 38.1365 12.6769 -0.247496 -1 0 1
155 9 3 0.046089 38.9184 13.1569 1.29365 -1 0 1
156 9 4 0.121889 -0.0914458 13.8981 20.3646 0 0 0
157 9 4 0.121889 -0.761747 16.259 20.7053 0 0 0
158 9 3 0.046089 37.593 14.984 0.961839 -1 0 1
159 9 3 0.046089 37.5048 16.5711 21.4807 -1 0 0
160 9 3 0.033922 39.0674 17.5715 1.44978 -1 0 1
161 9 3 0.033922 37.7635 16.8695 2.53277 -1 0 1
162 9 3 0.033922 39.3348 16.1296 2.38493 -1 0 1
163 10 1 -0.091211 10.9377 11.5052 11.3299 0 0 1
164 10 1 -0.050311 10.5114 10.114 11.8368 0 0 1
165 10 2 -0.174311 9.50009 9.3912 10.9248 0 0 1
166 10 2 -0.174311 9.78842 8.18119 10.3252 0 0 1
167 10 1 -0.050311 11.0958 7.49647 10.4471 0 0 1
168 10 1 -0.091211 10.9413 6.01284 9.98031 0 0 1
169 10 3 0.033922 11.6308 11.4941 10.4837 0 0 1
170 10 3 0.033922 11.5046 12.0543 12.0874 0 0 1
171 10 3 0.033922 10.0111 12.0517 11.1314 0 0 1
172 10 3 0.046089 11.4368 9.5525 11.9949 0 0 1
173 10 3 0.046089 10.0542 10.2626 12.8193 0 0 1
174 10 4 0.121889 8.48655 9.77904 10.9069 0 0 1
175 10 4 0.121889 8.98564 7.74494 9.73934 0 0 1
176 10 3 0.046089 11.3965 7.50676 11.4988 0 0 1
177 10 3 0.046089 11.941 7.86501 9.85849 0 0 1
178 10 3 0.033922 11.8089 5.43125 10.3054 0 0 1
179 10 3 0.033922 10.0731 5.5551 10.4634 0 0 1
180 10 3 0.033922 10.9868 6.03029 8.88751 0 0 1
181 11 1 -0.091211 -0.658704 16.0664 7.09151 0 0 0
182 11 1 -0.050311 39.2305 14.7175 7.34883 -1 0 0
183 11 2 -0.174311 39.0512 14.0213 5.98829 -1 0 0
184 11 2 -0.174311 37.9246 13.3351 5.59633 -1 0 0
185 11 1 -0.050311 36.5978 13.2606 6.38708 -1 0 0
186 11 1 -0.091211 35.8494 12.018 6.07604 -1 0 0
187 11 3 0.033922 0.380554 15.9419 6.77365 0 0 0
188 11 3 0.033922 -0.549801 16.7134 7.96681 0 0 0
189 11 3 0.033922 39.401 16.6747 6.39361 -1 0 0
190 11 3 0.046089 39.7995 14.0605 8.01312 -1 0 0
191 11 3 0.046089 38.2877 14.9162 7.86666 -1 0 0
192 11 4 0.121889 -0.674337 13.9815 5.40879 0 0 0
193 11 4 0.121889 37.9024 12.7085 4.71035 -1 0 0
194 11 3 0.046089 35.9624 14.123 6.16523 -1 0 0
195 11 3 0.046089 36.9162 13.2645 7.4336 -1 0 0
196 11 3 0.033922 35.0359 12.231 5.37643 -1 0 0
197 11 3 0.033922 36.4667 11.1964 5.7011 -1 0 0
198 11 3 0.033922 35.401 11.6319 6.99604 -1 0 0
199 12 1 -0.091211 2.9059 10.2498 1.87402 0 0 0
200 12 1 -0.050311 3.81658 11.3002 2.55209 0 0 0
201 12 2 -0.174311 3.02707 12.6028 2.7619 0 0 0
202 12 2 -0.174311 3.29276 13.5675 3.69709 0 0 0
203 12 1 -0.050311 4.39495 13.5973 4.69392 0 0 0
204 12 1 -0.091211 3.89054 13.7713 6.13043 0 0 0
205 12 3 0.033922 2.57699 10.5371 0.871082 0 0 0
206 12 3 0.033922 2.07143 9.98841 2.53124 0 0 0
207 12 3 0.033922 3.39529 9.27693 1.77035 0 0 0
208 12 3 0.046089 4.06019 10.9293 3.55194 0 0 0
209 12 3 0.046089 4.7729 11.4515 2.04303 0 0 0
210 12 4 0.121889 2.21131 12.8357 2.08496 0 0 0
211 12 4 0.121889 2.58165 14.3848 3.7632 0 0 0
212 12 3 0.046089 5.10789 14.3866 4.43838 0 0 0
213 12 3 0.046089 4.99799 12.685 4.72385 0 0 0
214 12 3 0.033922 3.20562 12.9779 6.44338 0 0 0
215 12 3 0.033922 4.70886 13.8631 6.85051 0 0 0
216 12 3 0.033922 3.37473 14.7311 6.22775 0 0 0
217 13 1 -0.091211 7.11011 13.2564 11.4586 0 0 0
218 13 1 -0.050311 5.56131 13.4166 11.6138 0 0 0
219 13 2 -0.174311 5.18517 14.8656 11.3437 0 0 0
220 13 2 -0.174311 3.91611 15.4656 11.6275 0 0 0
221 13 1 -0.050311 2.8204 14.6653 12.3217 0 0 0
222 13 1 -0.091211 2.74638 14.9796 13.7557 0 0 0
223 13 3 0.033922 7.63317 13.884 12.1861 0 0 0
224 13 3 0.033922 7.46418 13.3444 10.4274 0 0 0
225 13 3 0.033922 7.27179 12.1929 11.6572 0 0 0
226 13 3 0.046089 4.99344 12.7352 10.9736 0 0 0
227 13 3 0.046089 5.24529 13.0836 12.6067 0 0 0
228 13 4 0.121889 5.88112 15.5386 10.8531 0 0 0
229 13 4 0.121889 3.68687 16.5046 11.413 0 0 0
230 13 3 0.046089 3.02774 13.5913 12.3126 0 0 0
231 13 3 0.046089 1.82222 14.8626 11.9201 0 0 0
232 13 3 0.033922 3.7316 15.0493 14.2259 0 0 0
233 13 3 0.033922 2.2761 15.9364 14.0007 0 0 0
234 13 3 0.033922 2.24579 14.1121 14.1956 0 0 0
235 14 1 -0.091211 12.6725 10.4584 14.7766 0 0 0
236 14 1 -0.050311 13.4642 9.22888 14.9949 0 0 0
237 14 2 -0.174311 12.859 8.0678 14.1448 0 0 0
238 14 2 -0.174311 11.6595 7.4208 14.4222 0 0 0
239 14 1 -0.050311 10.7132 7.68901 15.5792 0 0 0
240 14 1 -0.091211 10.3871 6.33349 16.1796 0 0 0
241 14 3 0.033922 11.585 10.354 14.8318 0 0 0
242 14 3 0.033922 12.8903 11.0061 13.8551 0 0 0
243 14 3 0.033922 12.8654 11.2057 15.5518 0 0 0
244 14 3 0.046089 14.4772 9.49937 14.6829 0 0 0
245 14 3 0.046089 13.3963 9.00165 16.0627 0 0 0
246 14 4 0.121889 13.4615 7.84347 13.2704 0 0 0
247 14 4 0.121889 11.3115 6.69272 13.6963 0 0 0
248 14 3 0.046089 9.77083 8.16776 15.2976 0 0 0
249 14 3 0.046089 11.3237 8.27104 16.2757 0 0 0
250 14 3 0.033922 9.44164 6.47333 16.7116 0 0 0
251 14 3 0.033922 10.292 5.56774 15.4041 0 0 0
252 14 3 0.033922 11.1854 6.15081 16.9048 0 0 0
253 15 1 -0.091211 0.00285611 20.2029 14.557 0 0 0
254 15 1 -0.050311 0.716753 18.9268 14.9843 0 0 0
255 15 2 -0.174311 0.0914677 18.2161 16.1479 0 0 0
256 15 2 -0.174311 0.713542 18.0591 17.4033 0 0 0
257 15 1 -0.050311 2.14019 18.5929 17.6691 0 0 0
258 15 1 -0.091211 2.45458 18.1887 19.1395 0 0 0
259 15 3 0.033922 39.652 19.9027 14.2103 -1 0 0
260 15 3 0.033922 0.360418 20.6175 13.61 0 0 0
261 15 3 0.033922 0.102283 20.9649 15.3355 0 0 0
262 15 3 0.046089 0.736712 18.2634 14.1148 0 0 0
263 15 3 0.046089 1.78587 19.0938 15.1447 0 0 0
264 15 4 0.121889 39.7612 17.7432 16.0556 -1 0 0
265 15 4 0.121889 0.0998639 17.6077 18.1764 0 0 0
266 15 3 0.046089 2.16948 19.686 17.6373 0 0 0
267 15 3 0.046089 2.90098 18.1466 17.0221 0 0 0
268 15 3 0.033922 2.49348 17.0955 19.1497 0 0 0
269 15 3 0.033922 3.4369 18.3758 19.583 0 0 0
270 15 3 0.033922 1.64142 18.481 19.8103 0 0 0
271 16 1 -0.091211 13.4666 0.407377 7.37063 0 1 0
272 16 1 -0.050311 12.1311 1.22821 7.24747 0 1 0
273 16 2 -0.174311 11.1347 0.411839 8.14235 0 1 0
274 16 2 -0.174311 10.3545 0.897778 9.20723 0 1 0
275 16 1 -0.050311 10.3206 2.32952 9.6285 0 1 0
276 16 1 -0.091211 9.43191 2.49379 10.8517 0 1 0
277 16 3 0.033922 13.7994 0.323103 8.40924 0 1 0
278 16 3 0.033922 14.3239 0.751296 6.78459 0 1 0
279 16 3 0.033922 13.2096 -0.609652 7.0603 0 1 0
280 16 3 0.046089 12.2726 2.24186 7.63372 0 1 0
281 16 3 0.046089 11.6926 1.24036 6.2454 0 1 0
282 16 4 0.121889 10.977 -0.65035 7.98429 0 1 0
283 16 4 0.121889 9.80701 0.103072 9.70396 0 1 0
284 16 3 0.046089 10.0305 2.92838 8.76028 0 1 0
285 16 3 0.046089 11.3022 2.7077 9.92864 0 1 0
286 16 3 0.033922 9.54042 3.46778 11.3378 0 1 0
287 16 3 0.033922 8.39228 2.39331 10.5266 0 1 0
288 16 3 0.033922 9.631 1.79533 11.6697 0 1 0
289 17 1 -0.091211 9.6322 15.6697 19.0893 0 0 0
290 17 1 -0.050311 9.56551 14.5141 18.0783 0 0 0
291 17 2 -0.174311 8.17322 14.3367 17.5119 0 0 0
292 17 2 -0.174311 7.89189 13.5412 16.4465 0 0 0
293 17 1 -0.050311 9.05904 12.8027 15.7204 0 0 0
294 17 1 -0.091211 8.55238 11.4146 15.1947 0 0 0
295 17 3 0.033922 9.55805 16.6969 18.7204 0 0 0
296 17 3 0.033922 10.561 15.7335 19.6637 0 0 0
297 17 3 0.033922 8.89127 15.4577 19.8656 0 0 0
298 17 3 0.046089 10.304 14.5485 17.272 0 0 0
299 17 3 0.046089 9.81971 13.6343 18.6766 0 0 0
300 17 4 0.121889 7.35288 14.9135 17.9271 0 0 0
301 17 4 0.121889 6.96305 13.6181 15.8903 0 0 0
302 17 3 0.046089 9.88644 12.622 16.4128 0 0 0
303 17 3 0.046089 9.42359 13.3698 14.8589 0 0 0
304 17 3 0.033922 9.37114 10.8096 14.7944 0 0 0
305 17 3 0.033922 8.12651 10.8979 16.0597 0 0 0
306 17 3 0.033922 7.71625 11.4989 14.4944 0 0 0
307 18 1 -0.091211 -0.74364 9.57059 3.68951 0 0 1
308 18 1 -0.050311 0.161991 9.6321 4.86531 0 0 1
309 18 2 -0.174311 -0.681576 9.97332 6.01953 0 0 1
310 18 2 -0.174311 -0.268858 10.745 7.09171 0 0 1
311 18 1 -0.050311 1.17121 11.1052 7.29204 0 0 1
312 18 1 -0.091211 1.58987 11.7575 8.58435 0 0 1
313 18 3 0.033922 -0.144723 9.14996 2.8765 0 0 1
314 18 3 0.033922 -0.948379 10.6042 3.39543 0 0 1
315 18 3 0.033922 38.9892 8.98249 3.84296 -1 0 1
316 18 3 0.046089 0.594093 8.63162 4.96046 0 0 1
317 18 3 0.046089 0.994584 10.3216 4.69809 0 0 1
318 18 4 0.121889 38.9262 9.6612 6.12092 -1 0 1
319 18 4 0.121889 -1.04716 11.0491 7.78434 0 0 1
320 18 3 0.046089 1.33585 11.8204 6.48083 0 0 1
321 18 3 0.046089 1.84615 10.2457 7.243 0 0 1
322 18 3 0.033922 1.16091 12.7553 8.71497 0 0 1
323 18 3 0.033922 1.27701 11.0974 9.39862 0 0 1
324 18 3 0.033922 2.68231 11.7755 8.53117 0 0 1
325 19 1 -0.091211 13.1 7.4983 2.03597 0 0 0
326 19 1 -0.050311 13.3258 8.75651 2.89686 0 0 0
327 19 2 -0.174311 12.6425 9.97961 2.38582 0 0 0
328 19 2 -0.174311 12.6145 11.1845 3.13579 0 0 0
329 19 1 -0.050311 13.1497 11.2719 4.49823 0 0 0
330 19 1 -0.091211 13.3304 12.7486 4.86815 0 0 0
331 19 3 0.033922 12.0492 7.39306 1.75094 0 0 0
332 19 3 0.033922 13.4184 6.59362 2.56218 0 0 0
333 19 3 0.033922 13.7585 7.49782 1.16248 0 0 0
334 19 3 0.046089 12.9628 8.61747 3.91932 0 0 0
335 19 3 0.046089 14.3916 8.99394 2.96256 0 0 0
336 19 4 0.121889 12.0296 10.0439 1.4924 0 0 0
337 19 4 0.121889 11.9093 11.9268 2.77546 0 0 0
338 19 3 0.046089 14.1807 10.9094 4.54635 0 0 0
339 19 3 0.046089 12.6241 10.6552 5.23304 0 0 0
340 19 3 0.033922 12.3799 13.2727 5.00405 0 0 0
341 19 3 0.033922 13.9237 12.7617 5.78705 0 0 0
342 19 3 0.033922 13.8963 13.231 4.06588 0 0 0
343 20 1 -0.091211 14.7926 21.7675 15.5277 0 -1 0
344 20 1 -0.050311 15.5331 20.4646 15.5896 0 -1 0
345 20 2 -0.174311 15.0753 19.4638 14.5961 0 -1 0
346 20 2 -0.174311 15.8376 19.0012 13.5728 0 -1 0
347 20 1 -0.050311 17.2608 19.3404 13.3445 0 -1 0
348 20 1 -0.091211 17.7132 18.6913 12.0318 0 -1 0
349 20 3 0.033922 15.0353 22.2363 14.5696 0 -1 0
350 20 3 0.033922 15.2626 22.4367 16.2543 0 -1 0
351 20 3 0.033922 13.7072 21.6532 15.6005 0 -1 0
352 20 3 0.046089 16.581 20.7243 15.4129 0 -1 0
353 20 3 0.046089 15.398 20.0096 16.5752 0 -1 0
354 20 4 0.121889 14.0857 19.0196 14.5591 0 -1 0
355 20 4 0.121889 15.2885 18.3399 12.9101 0 -1 0
356 20 3 0.046089 17.8088 18.9562 14.2098 0 -1 0
357 20 3 0.046089 17.3233 20.4263 13.2277 0 -1 0
358 20 3 0.033922 17.656 17.6007 12.0958 0 -1 0
359 20 3 0.033922 17.1148 18.9812 11.1632 0 -1 0
360 20 3 0.033922 18.7268 19.0554 11.8402 0 -1 0
361 21 1 -0.091211 1.95326 4.7047 11.3398 0 0 0
362 21 1 -0.050311 1.85925 3.49221 12.2832 0 0 0
363 21 2 -0.174311 0.45866 3.01222 12.4292 0 0 0
364 21 2 -0.174311 0.0712634 1.75005 12.8976 0 0 0
365 21 1 -0.050311 0.98674 0.776558 13.5176 0 0 0
366 21 1 -0.091211 0.0857405 -0.28341 14.2291 0 0 0
367 21 3 0.033922 1.31692 4.5981 10.4565 0 0 0
368 21 3 0.033922 2.95036 4.85745 10.9167 0 0 0
369 21 3 0.033922 1.67749 5.58459 11.9284 0 0 0
370 21 3 0.046089 2.54124 2.691 11.9839 0 0 0
371 21 3 0.046089 2.11949 3.8246 13.2924 0 0 0
372 21 4 0.121889 -0.389535 3.65973 12.2309 0 0 0
373 21 4 0.121889 39.6576 1.50951 12.826 -1 0 0
374 21 3 0.046089 1.61584 1.29428 14.2475 0 0 0
375 21 3 0.046089 1.46266 0.258423 12.6799 0 0 0
376 21 3 0.033922 -0.424898 -0.910582 13.4926 0 0 0
377 21 3 0.033922 0.771394 -0.9507 14.7595 0 0 0
378 21 3 0.033922 -0.583999 0.148554 14.9784 0 0 0
379 22 1 -0.091211 9.84339 22.455 13.891 0 -1 0
380 22 1 -0.050311 8.45748 22.4743 14.5566 0 -1 0
381 22 2 -0.174311 7.47062 -1.1154 13.4894 0 0 0
382 22 2 -0.174311 6.14173 22.8282 13.5763 0 -1 0
383 22 1 -0.050311 5.42385 21.925 14.6142 0 -1 0
384 22 1 -0.091211 3.98964 22.3496 14.9791 0 -1 0
385 22 3 0.033922 9.89372 21.8447 12.9845 0 -1 0
386 22 3 0.033922 10.6103 22.0195 14.5381 0 -1 0
387 22 3 0.033922 10.1522 -0.682228 13.5459 0 0 0
388 22 3 0.046089 8.08227 21.4817 14.8227 0 -1 0
389 22 3 0.046089 8.3953 23.1511 15.4137 0 -1 0
390 22 4 0.121889 7.71397 -0.438402 12.6767 0 0 0
391 22 4 0.121889 5.52044 -0.687467 12.9307 0 0 0
392 22 3 0.046089 5.98827 21.8856 15.5504 0 -1 0
393 22 3 0.046089 5.41838 20.8641 14.3474 0 -1 0
394 22 3 0.033922 4.01527 -0.705842 15.1915 0 0 0
395 22 3 0.033922 3.26487 22.0937 14.2008 0 -1 0
396 22 3 0.033922 3.649 21.7489 15.8275 0 -1 0
397 23 1 -0.091211 2.5015 4.78142 0.182882 0 0 0
398 23 1 -0.050311 2.79563 6.24945 0.334008 0 0 0
399 23 2 -0.174311 3.18371 6.28233 1.81937 0 0 0
400 23 2 -0.174311 4.37501 6.64914 2.39052 0 0 0
401 23 1 -0.050311 5.61934 7.03974 1.66802 0 0 0
402 23 1 -0.091211 6.55968 7.65698 2.74218 0 0 0
403 23 3 0.033922 2.3411 4.52873 20.53 0 0 -1
404 23 3 0.033922 1.6197 4.4653 0.747756 0 0 0
405 23 3 0.033922 3.31205 4.13205 0.526351 0 0 0
406 23 3 0.046089 3.6302 6.60589 -0.276762 0 0 0
407 23 3 0.046089 1.85631 6.79149 0.190813 0 0 0
408 23 4 0.121889 2.48804 5.91336 2.56628 0 0 0
409 23 4 0.121889 4.33932 6.83111 3.4599 0 0 0
410 23 3 0.046089 5.3811 7.78021 0.898876 0 0 0
411 23 3 0.046089 6.01677 6.13671 1.1955 0 0 0
412 23 3 0.033922 7.50469 7.84726 2.22515 0 0 0
413 23 3 0.033922 6.08437 8.56221 3.13121 0 0 0
414 23 3 0.033922 6.69708 6.93349 3.55109 0 0 0
415 24 1 -0.091211 6.71484 16.126 0.63665 0 0 0
416 24 1 -0.050311 6.14255 14.7404 1.13325 0 0 0
417 24 2 -0.174311 7.14362 13.57 0.815883 0 0 0
418 24 2 -0.174311 7.88723 12.7263 1.60794 0 0 0
419 24 1 -0.050311 7.70544 12.6325 3.13941 0 0 0
420 24 1 -0.091211 8.82049 11.9305 3.7871 0 0 0
421 24 3 0.033922 7.76161 16.262 0.923664 0 0 0
422 24 3 0.033922 6.14381 16.9628 1.04951 0 0 0
423 24 3 0.033922 6.67932 16.238 20.9484 0 0 -1
424 24 3 0.046089 6.00731 14.703 2.21809 0 0 0
425 24 3 0.046089 5.07598 14.6123 0.926868 0 0 0
426 24 4 0.121889 7.48521 13.6172 21.186 0 0 -1
427 24 4 0.121889 8.74327 12.1436 1.28275 0 0 0
428 24 3 0.046089 6.74547 12.1986 3.4341 0 0 0
429 24 3 0.046089 7.8484 13.6957 3.35353 0 0 0
430 24 3 0.033922 9.76911 12.4307 3.57123 0 0 0
431 24 3 0.033922 8.57268 12.0422 4.84668 0 0 0
432 24 3 0.033922 8.93796 10.8679 3.55525 0 0 0
433 25 1 -0.091211 7.14434 7.92617 13.2774 0 0 0
434 25 1 -0.050311 7.43092 6.44179 13.2959 0 0 0
435 25 2 -0.174311 6.14208 5.59535 12.9875 0 0 0
436 25 2 -0.174311 5.73001 4.38295 13.4804 0 0 0
437 25 1 -0.050311 6.60234 3.61719 14.3925 0 0 0
438 25 1 -0.091211 6.57459 2.0753 14.2206 0 0 0
439 25 3 0.033922 7.96341 8.59466 13.5583 0 0 0
440 25 3 0.033922 6.38279 8.19335 14.0158 0 0 0
441 25 3 0.033922 6.83561 8.14671 12.2514 0 0 0
442 25 3 0.046089 8.12492 6.19165 12.4882 0 0 0
443 25 3 0.046089 7.88769 6.14424 14.2442 0 0 0
444 25 4 0.121889 5.52987 6.06685 12.2254 0 0 0
445 25 4 0.121889 4.80663 3.90862 13.1635 0 0 0
446 25 3 0.046089 6.1764 3.77582 15.3874 0 0 0
447 25 3 0.046089 7.65148 3.91011 14.2918 0 0 0
448 25 3 0.033922 6.61731 1.78164 13.1677 0 0 0
449 25 3 0.033922 7.33295 1.58226 14.8357 0 0 0
450 25 3 0.033922 5.59423 1.67186 14.4903 0 0 0
451 26 1 -0.091211 39.6869 19.9503 9.85974 -1 -1 0
452 26 1 -0.050311 0.453296 19.8588 9.19292 0 -1 0
453 26 2 -0.174311 1.50011 19.5362 10.2218 0 -1 0
454 26 2 -0.174311 2.2702 20.4625 10.8962 0 -1 0
455 26 1 -0.050311 1.90031 22.005 10.9416 0 -1 0
456 26 1 -0.091211 2.78644 22.9343 10.2568 0 -1 0
457 26 3 0.033922 39.3759 19.0177 10.3396 -1 -1 0
458 26 3 0.033922 38.9734 20.1909 9.06622 -1 -1 0
459 26 3 0.033922 39.7518 20.7043 10.6496 -1 -1 0
460 26 3 0.046089 0.50049 19.0743 8.43192 0 -1 0
461 26 3 0.046089 0.743398 20.7532 8.63395 0 -1 0
462 26 4 0.121889 1.7561 18.4827 10.1695 0 -1 0
463 26 4 0.121889 3.02706 20.2058 11.6306 0 -1 0
464 26 3 0.046089 1.80404 22.2304 12.0077 0 -1 0
465 26 3 0.046089 0.914531 22.185 10.5029 0 -1 0
466 26 3 0.033922 2.49921 -0.17079 10.5162 0 0 0
467 26 3 0.033922 3.85953 22.8207 10.4361 0 -1 0
468 26 3 0.033922 2.60999 22.8755 9.17884 0 -1 0
469 27 1 -0.091211 18.2402 13.1248 8.3758 0 0 0
470 27 1 -0.050311 18.5066 12.3836 7.09047 0 0 0
471 27 2 -0.174311 19.5706 13.0967 6.2845 0 0 0
472 27 2 -0.174311 20.177 12.544 5.23593 0 0 0
473 27 1 -0.050311 20.1999 11.033 4.79802 0 0 0
474 27 1 -0.091211 21.2868 10.7415 3.68259 0 0 0
475 27 3 0.033922 17.3839 12.7622 8.95184 0 0 0
476 27 3 0.033922 18.0533 14.165 8.09313 0 0 0
477 27 3 0.033922 19.0803 13.0345 9.07062 0 0 0
478 27 3 0.046089 18.7125 11.3296 7.29852 0 0 0
479 27 3 0.046089 17.5945 12.368 6.48678 0 0 0
480 27 4 0.121889 19.6582 14.1602 6.48341 0 0 0
481 27 4 0.121889 20.7184 13.3103 4.69026 0 0 0
482 27 3 0.046089 19.208 10.8008 4.39938 0 0 0
483 27 3 0.046089 20.4002 10.3755 5.64907 0 0 0
484 27 3 0.033922 21.0496 11.3651 2.81564 0 0 0
485 27 3 0.033922 22.2602 11.0769 4.05221 0 0 0
486 27 3 0.033922 21.3629 9.67717 3.44167 0 0 0
487 28 1 -0.091211 10.1989 22.1586 20.5234 0 -1 -1
488 28 1 -0.050311 8.82183 21.4723 20.467 0 -1 -1
489 28 2 -0.174311 8.02351 21.8383 0.31257 0 -1 0
490 28 2 -0.174311 6.73733 21.4431 0.383839 0 -1 0
491 28 1 -0.050311 6.01997 20.5483 20.8852 0 -1 -1
492 28 1 -0.091211 4.67221 21.1336 20.6324 0 -1 -1
493 28 3 0.033922 10.6766 21.7436 21.4157 0 -1 -1
494 28 3 0.033922 9.98811 -0.898181 20.5873 0 0 -1
495 28 3 0.033922 10.8407 21.9993 19.6521 0 -1 -1
496 28 3 0.046089 8.41395 21.8138 19.5111 0 -1 -1
497 28 3 0.046089 8.88035 20.3813 20.5224 0 -1 -1
498 28 4 0.121889 8.51699 22.4809 1.03476 0 -1 0
499 28 4 0.121889 6.16183 21.8038 1.23038 0 -1 0
500 28 3 0.046089 5.94541 19.5695 -0.0313446 0 -1 0
501 28 3 0.046089 6.56578 20.454 19.9419 0 -1 -1
502 28 3 0.033922 4.17867 20.4932 19.8956 0 -1 -1
503 28 3 0.033922 3.99773 21.2528 0.0860542 0 -1 0
504 28 3 0.033922 4.80995 22.1432 20.2346 0 -1 -1
505 29 1 -0.091211 9.13614 0.643943 2.47753 0 0 0
506 29 1 -0.050311 9.65656 1.72391 3.41428 0 0 0
507 29 2 -0.174311 8.94128 3.02431 3.18276 0 0 0
508 29 2 -0.174311 8.32357 3.73922 4.16544 0 0 0
509 29 1 -0.050311 8.04451 3.26832 5.60227 0 0 0
510 29 1 -0.091211 6.8961 3.96256 6.32789 0 0 0
511 29 3 0.033922 9.20991 0.85049 1.40586 0 0 0
512 29 3 0.033922 8.09585 0.386844 2.69731 0 0 0
513 29 3 0.033922 9.74439 -0.258094 2.59179 0 0 0
514 29 3 0.046089 9.52389 1.30527 4.41615 0 0 0
515 29 3 0.046089 10.7195 1.89303 3.21888 0 0 0
516 29 4 0.121889 9.03989 3.46568 2.19613 0 0 0
517 29 4 0.121889 7.9535 4.72525 3.903 0 0 0
518 29 3 0.046089 8.9664 3.38555 6.1793 0 0 0
519 29 3 0.046089 7.96176 2.1775 5.59984 0 0 0
520 29 3 0.033922 7.0518 5.03793 6.4546 0 0 0
521 29 3 0.033922 6.00644 3.92005 5.69284 0 0 0
522 29 3 0.033922 6.72752 3.59841 7.34552 0 0 0
523 30 1 -0.091211 11.3358 19.6699 7.6526 0 0 1
524 30 1 -0.050311 12.1641 20.1809 6.43426 0 0 1
525 30 2 -0.174311 11.3026 21.0253 5.54039 0 0 1
526 30 2 -0.174311 11.0541 20.8849 4.22046 0 0 1
527 30 1 -0.050311 11.8467 19.9797 3.35405 0 0 1
528 30 1 -0.091211 11.2496 18.6062 3.21221 0 0 1
529 30 3 0.033922 12.0277 19.4021 8.45642 0 0 1
530 30 3 0.033922 10.689 18.8399 7.35366 0 0 1
531 30 3 0.033922 10.6278 20.411 8.0349 0 0 1
532 30 3 0.046089 13.0128 20.8365 6.65006 0 0 1
533 30 3 0.046089 12.4831 19.3008 5.86823 0 0 1
534 30 4 0.121889 10.8448 21.8301 6.10677 0 0 1
535 30 4 0.121889 10.4538 21.5917 3.65632 0 0 1
536 30 3 0.046089 12.8422 19.8969 3.79981 0 0 1
537 30 3 0.046089 11.9666 20.4305 2.3646 0 0 1
538 30 3 0.033922 10.4604 18.6805 2.4584 0 0 1
539 30 3 0.033922 11.9797 17.8517 2.90492 0 0 1
540 30 3 0.033922 10.7929 18.242 4.13709 0 0 1
541 31 1 -0.091211 23.4795 2.04843 16.8733 0 1 0
542 31 1 -0.050311 22.1403 1.39709 17.1266 0 1 0
543 31 2 -0.174311 21.231 2.38098 17.8505 0 1 0
544 31 2 -0.174311 20.7885 2.13866 19.1171 0 1 0
545 31 1 -0.050311 21.0798 1.00843 20.1255 0 1 0
546 31 1 -0.091211 19.934 0.770956 21.1441 0 1 0
547 31 3 0.033922 23.2708 2.93563 16.2683 0 1 0
548 31 3 0.033922 24.2005 1.43316 16.3271 0 1 0
549 31 3 0.033922 23.8822 2.42342 17.8187 0 1 0
550 31 3 0.046089 21.6627 1.04391 16.2081 0 1 0
551 31 3 0.046089 22.3893 0.5409 17.7604 0 1 0
552 31 4 0.121889 20.8978 3.28585 17.3523 0 1 0
553 31 4 0.121889 20.2328 2.95253 19.5718 0 1 0
554 31 3 0.046089 21.9399 1.21646 20.7685 0 1 0
555 31 3 0.046089 21.329 0.0619136 19.637 0 1 0
556 31 3 0.033922 19.9028 1.37438 0.656675 0 1 1
557 31 3 0.033922 18.9964 0.854592 20.5868 0 1 0
558 31 3 0.033922 20.2061 -0.218525 0.123766 0 1 1
559 32 1 -0.091211 15.824 1.91712 2.85023 0 1 0
560 32 1 -0.050311 16.1537 0.473038 3.33107 0 1 0
561 32 2 -0.174311 14.9604 -0.127997 3.99802 0 1 0
562 32 2 -0.174311 14.9694 22.657 4.32485 0 0 0
563 32 1 -0.050311 16.1213 21.7907 4.21723 0 0 0
564 32 1 -0.091211 15.7028 20.3465 4.15305 0 0 0
565 32 3 0.033922 16.6956 2.28236 2.29933 0 1 0
566 32 3 0.033922 15.6585 2.60378 3.68556 0 1 0
567 32 3 0.033922 14.9277 1.94458 2.22375 0 1 0
568 32 3 0.046089 16.3573 -0.203742 2.49612 0 1 0
569 32 3 0.046089 17.0263 0.547644 3.98642 0 1 0
570 32 4 0.121889 14.0449 0.428524 4.17196 0 1 0
571 32 4 0.121889 13.9774 22.2635 4.52259 0 0 0
572 32 3 0.046089 16.7997 21.8682 5.07183 0 0 0
573 32 3 0.046089 16.6415 22.1043 3.30746 0 0 0
574 32 3 0.033922 16.5933 19.7115 4.13366 0 0 0
575 32 3 0.033922 15.1536 20.0735 5.05885 0 0 0
576 32 3 0.033922 15.1421 19.9506 3.30129 0 0 0
577 33 1 -0.091211 15.5416 12.6079 13.0694 0 0 0
578 33 1 -0.050311 14.4919 13.3644 13.8533 0 0 0
579 33 2 -0.174311 14.8217 14.7641 14.293 0 0 0
580 33 2 -0.174311 14.0573 15.5128 15.1868 0 0 0
581 33 1 -0.050311 12.8152 15.067 15.9824 0 0 0
582 33 1 -0.091211 13.0968 15.1814 17.4512 0 0 0
583 33 3 0.033922 15.4382 11.5393 13.2794 0 0 0
584 33 3 0.033922 16.5284 12.8828 13.4531 0 0 0
585 33 3 0.033922 15.4236 12.787 11.9968 0 0 0
586 33 3 0.046089 13.5321 13.52 13.352 0 0 0
587 33 3 0.046089 14.3451 12.795 14.7757 0 0 0
588 33 4 0.121889 15.582 15.3296 13.7637 0 0 0
589 33 4 0.121889 14.5187 16.4771 15.3747 0 0 0
590 33 3 0.046089 12.5456 14.0464 15.6953 0 0 0
591 33 3 0.046089 12.0091 15.7922 15.8376 0 0 0
592 33 3 0.033922 13.5887 16.1071 17.7639 0 0 0
593 33 3 0.033922 12.1581 15.1027 18.0074 0 0 0
594 33 3 0.033922 13.6633 14.3049 17.7791 0 0 0
595 34 1 -0.091211 20.1092 13.4617 15.8213 0 0 0
596 34 1 -0.050311 20.3019 12.9964 14.3656 0 0 0
597 34 2 -0.174311 21.5468 13.7569 13.8925 0 0 0
598 34 2 -0.174311 21.4974 14.4003 12.7218 0 0 0
599 34 1 -0.050311 20.2859 14.5046 11.7952 0 0 0
600 34 1 -0.091211 20.7055 15.2505 10.592 0 0 0
601 34 3 0.033922 21.0399 13.7375 16.3256 0 0 0
602 34 3 0.033922 19.7821 12.5998 16.4101 0 0 0
603 34 3 0.033922 19.3532 14.2518 15.7953 0 0 0
604 34 3 0.046089 20.6693 11.9676 14.4233 0 0 0
605 34 3 0.046089 19.4172 12.9722 13.7227 0 0 0
606 34 4 0.121889 22.3898 13.78 14.5758 0 0 0
607 34 4 0.121889 22.38 14.9466 12.4045 0 0 0
608 34 3 0.046089 19.4562 15.0092 12.2987 0 0 0
609 34 3 0.046089 19.9275 13.5076 11.523 0 0 0
610 34 3 0.033922 21.5376 14.7917 10.0501 0 0 0
611 34 3 0.033922 19.9034 15.2632 9.84831 0 0 0
612 34 3 0.033922 20.7874 16.3177 10.8181 0 0 0
613 35 1 -0.091211 36.4951 12.0473 10.1792 -1 0 0
614 35 1 -0.050311 34.9581 12.0542 10.4687 -1 0 0
615 35 2 -0.174311 34.4034 10.7057 10.516 -1 0 0
616 35 2 -0.174311 33.7059 10.2611 11.5681 -1 0 0
617 35 1 -0.050311 33.0492 11.2067 12.644 -1 0 0