ITEM: TIMESTEP
30000
ITEM: NUMBER OF ATOMS
1800
ITEM: BOX BOUNDS pp pp pp
-1.9841977993456439e-01 3.9006435279934692e+01
-1.0121765125543725e-01 2.1709873151255636e+01
-1.8162156510094523e+00 2.3069949151009403e+01
ITEM: ATOMS id mol type q x y z ix iy iz
1 1 1 -0.091211 7.09286 14.3098 7.49659 0 -1 0
2 1 1 -0.050311 5.6099 14.141 7.86307 0 -1 0
3 1 2 -0.174311 4.82927 13.3605 6.82962 0 -1 0
4 1 2 -0.174311 3.46473 13.1746 6.86767 0 -1 0
5 1 1 -0.050311 2.54659 13.9536 7.87457 0 -1 0
6 1 1 -0.091211 1.47044 14.7286 7.10919 0 -1 0
7 1 3 0.033922 7.54257 13.3272 7.32675 0 -1 0
8 1 3 0.033922 7.70433 14.805 8.25646 0 -1 0
9 1 3 0.033922 7.14838 14.781 6.51097 0 -1 0
10 1 3 0.046089 5.46498 13.6182 8.81299 0 -1 0
11 1 3 0.046089 5.07936 15.0922 7.96458 0 -1 0
12 1 4 0.121889 5.42295 12.8593 6.0718 0 -1 0
13 1 4 0.121889 3.04282 12.4719 6.15623 0 -1 0
14 1 3 0.046089 3.04628 14.6457 8.55858 0 -1 0
15 1 3 0.046089 2.16355 13.1509 8.5114 0 -1 0
16 1 3 0.033922 0.7986 15.2676 7.78349 0 -1 0
17 1 3 0.033922 1.8866 15.4453 6.39519 0 -1 0
18 1 3 0.033922 0.886282 13.9785 6.56822 0 -1 0
19 2 1 -0.091211 9.20079 5.67959 18.9393 0 0 0
20 2 1 -0.050311 10.423 4.77396 18.6121 0 0 0
21 2 2 -0.174311 10.6413 4.49072 17.138 0 0 0
22 2 2 -0.174311 11.6107 5.03606 16.39 0 0 0
23 2 1 -0.050311 12.5593 6.09838 16.8766 0 0 0
24 2 1 -0.091211 12.3187 7.39853 16.1219 0 0 0
25 2 3 0.033922 8.25685 5.18367 18.6952 0 0 0
26 2 3 0.033922 9.17294 6.63148 18.4011 0 0 0
27 2 3 0.033922 9.21369 5.90367 20.0099 0 0 0
28 2 3 0.046089 11.2884 5.20111 19.1272 0 0 0
29 2 3 0.046089 10.2056 3.78388 19.0233 0 0 0
30 2 4 0.121889 9.86356 3.86658 16.7096 0 0 0
31 2 4 0.121889 11.716 4.6958 15.3647 0 0 0
32 2 3 0.046089 13.527 5.65973 16.6164 0 0 0
33 2 3 0.046089 12.498 6.36558 17.9356 0 0 0
34 2 3 0.033922 11.6486 7.19104 15.2825 0 0 0
35 2 3 0.033922 11.7533 8.12679 16.7106 0 0 0
36 2 3 0.033922 13.2439 7.86859 15.7761 0 0 0
37 3 1 -0.091211 5.75248 5.3753 6.69865 0 0 0
38 3 1 -0.050311 5.51519 5.7313 8.19344 0 0 0
39 3 2 -0.174311 4.88493 4.65697 9.00652 0 0 0
40 3 2 -0.174311 4.37074 4.72889 10.3271 0 0 0
41 3 1 -0.050311 4.42322 5.93307 11.1839 0 0 0
42 3 1 -0.091211 4.30141 5.67255 12.7053 0 0 0
43 3 3 0.033922 6.29805 4.44187 6.53239 0 0 0
44 3 3 0.033922 6.24268 6.18877 6.15592 0 0 0
45 3 3 0.033922 4.79786 5.28325 6.17256 0 0 0
46 3 3 0.046089 6.49679 6.06377 8.54341 0 0 0
47 3 3 0.046089 4.93241 6.65068 8.30155 0 0 0
48 3 4 0.121889 4.91014 3.63312 8.64724 0 0 0
49 3 4 0.121889 4.17061 3.73492 10.7144 0 0 0
50 3 3 0.046089 3.59673 6.48611 10.7283 0 0 0
51 3 3 0.046089 5.36216 6.43986 10.9428 0 0 0
52 3 3 0.033922 4.0987 6.60808 13.2347 0 0 0
53 3 3 0.033922 3.48566 4.96736 12.8892 0 0 0
54 3 3 0.033922 5.18909 5.19525 13.1305 0 0 0
55 4 1 -0.091211 1.88715 21.0984 4.90027 0 -1 0
56 4 1 -0.050311 1.5396 19.647 4.63016 0 -1 0
57 4 2 -0.174311 2.59151 18.9472 3.78276 0 -1 0
58 4 2 -0.174311 2.32697 17.9111 2.9049 0 -1 0
59 4 1 -0.050311 1.02763 17.3079 2.59496 0 -1 0
60 4 1 -0.091211 1.0498 15.8119 2.48917 0 -1 0
61 4 3 0.033922 2.8442 21.103 5.42998 0 -1 0
62 4 3 0.033922 1.1229 -0.23714 5.52181 0 0 0
63 4 3 0.033922 2.0653 21.6909 3.9982 0 -1 0
64 4 3 0.046089 1.50232 19.12 5.58802 0 -1 0
65 4 3 0.046089 0.509955 19.6369 4.261 0 -1 0
66 4 4 0.121889 3.59573 19.3588 3.78997 0 -1 0
67 4 4 0.121889 3.12112 17.5106 2.28296 0 -1 0
68 4 3 0.046089 0.789758 17.6705 1.59073 0 -1 0
69 4 3 0.046089 0.244321 17.6415 3.28173 0 -1 0
70 4 3 0.033922 0.0942387 15.4311 2.11707 0 -1 0
71 4 3 0.033922 1.74611 15.4207 1.7417 0 -1 0
72 4 3 0.033922 1.27008 15.4167 3.48512 0 -1 0
73 5 1 -0.091211 37.6453 3.2666 7.14053 -1 0 0
74 5 1 -0.050311 36.7656 4.54002 6.83763 -1 0 0
75 5 2 -0.174311 35.706 4.19952 5.88866 -1 0 0
76 5 2 -0.174311 35.6352 4.74667 4.65049 -1 0 0
77 5 1 -0.050311 36.7109 5.66245 4.02057 -1 0 0
78 5 1 -0.091211 36.4456 7.16936 4.18177 -1 0 0
79 5 3 0.033922 37.1889 2.5237 7.80109 -1 0 0
80 5 3 0.033922 38.5642 3.65154 7.59236 -1 0 0
81 5 3 0.033922 37.8702 2.76962 6.19236 -1 0 0
82 5 3 0.046089 36.3678 5.02952 7.73135 -1 0 0
83 5 3 0.046089 37.4332 5.29916 6.41995 -1 0 0
84 5 4 0.121889 34.9044 3.59464 6.30043 -1 0 0
85 5 4 0.121889 34.7897 4.55645 3.99724 -1 0 0
86 5 3 0.046089 36.6003 5.43003 2.95741 -1 0 0
87 5 3 0.046089 37.7181 5.35611 4.31749 -1 0 0
88 5 3 0.033922 37.2301 7.83839 3.81645 -1 0 0
89 5 3 0.033922 35.6013 7.4677 3.55347 -1 0 0
90 5 3 0.033922 36.3415 7.56396 5.19668 -1 0 0
91 6 1 -0.091211 9.73928 3.23928 23.0817 0 0 0
92 6 1 -0.050311 8.73072 3.05145 21.9843 0 0 0
93 6 2 -0.174311 9.16861 1.96545 20.9876 0 0 0
94 6 2 -0.174311 8.67343 0.655352 20.8745 0 0 0
95 6 1 -0.050311 7.40167 0.24302 21.6352 0 0 0
96 6 1 -0.091211 7.13157 20.5562 21.4388 0 -1 0
97 6 3 0.033922 10.3541 4.11395 22.8502 0 0 0
98 6 3 0.033922 10.2932 2.30471 -1.67649 0 0 1
99 6 3 0.033922 9.25252 3.40221 -0.838528 0 0 1
100 6 3 0.046089 7.73073 2.78921 22.3417 0 0 0
101 6 3 0.046089 8.51636 3.99464 21.4733 0 0 0
102 6 4 0.121889 10.0547 2.15081 20.389 0 0 0
103 6 4 0.121889 9.17652 0.0666726 20.114 0 0 0
104 6 3 0.046089 6.55973 0.864681 21.317 0 0 0
105 6 3 0.046089 7.64353 0.375344 22.6938 0 0 0
106 6 3 0.033922 6.1524 20.3961 21.8994 0 -1 0
107 6 3 0.033922 7.08002 20.1425 20.4275 0 -1 0
108 6 3 0.033922 7.84113 19.9708 22.0308 0 -1 0
109 7 1 -0.091211 33.3931 13.1584 10.0927 -1 0 0
110 7 1 -0.050311 34.6113 12.2837 10.0889 -1 0 0
111 7 2 -0.174311 34.6943 11.3466 8.7848 -1 0 0
112 7 2 -0.174311 35.555 11.6693 7.74345 -1 0 0
113 7 1 -0.050311 36.3867 12.8119 7.61261 -1 0 0
114 7 1 -0.091211 36.1964 13.328 6.19816 -1 0 0
115 7 3 0.033922 32.5199 12.5257 9.90909 -1 0 0
116 7 3 0.033922 33.3845 14.0563 9.46799 -1 0 0
117 7 3 0.033922 33.265 13.4891 11.1275 -1 0 0
118 7 3 0.046089 35.5108 12.8979 10.1902 -1 0 0
119 7 3 0.046089 34.448 11.6255 10.9472 -1 0 0
120 7 4 0.121889 34.0812 10.4539 8.71364 -1 0 0
121 7 4 0.121889 35.6276 10.843 7.04359 -1 0 0
122 7 3 0.046089 37.4406 12.5561 7.75533 -1 0 0
123 7 3 0.046089 36.1067 13.6241 8.28966 -1 0 0
124 7 3 0.033922 35.1538 13.6467 6.10924 -1 0 0
125 7 3 0.033922 36.8419 14.1639 5.91318 -1 0 0
126 7 3 0.033922 36.3858 12.5714 5.4312 -1 0 0
127 8 1 -0.091211 4.96339 5.30028 16.596 0 0 0
128 8 1 -0.050311 4.87999 5.42054 18.1872 0 0 0
129 8 2 -0.174311 5.0774 4.17301 19.0107 0 0 0
130 8 2 -0.174311 4.33808 3.78643 20.0801 0 0 0
131 8 1 -0.050311 3.12991 4.53461 20.5924 0 0 0
132 8 1 -0.091211 2.69776 4.14305 21.9829 0 0 0
133 8 3 0.033922 4.15493 4.62312 16.3054 0 0 0
134 8 3 0.033922 5.95943 4.97668 16.2802 0 0 0
135 8 3 0.033922 4.82802 6.27119 16.1106 0 0 0
136 8 3 0.046089 5.66983 6.1048 18.5104 0 0 0
137 8 3 0.046089 3.91134 5.84105 18.4726 0 0 0
138 8 4 0.121889 5.92324 3.54919 18.7399 0 0 0
139 8 4 0.121889 4.50014 2.8435 20.5925 0 0 0
140 8 3 0.046089 2.32527 4.53286 19.8514 0 0 0
141 8 3 0.046089 3.40095 5.5751 20.7936 0 0 0
142 8 3 0.033922 2.00532 4.8457 22.4555 0 0 0
143 8 3 0.033922 2.20515 3.16794 21.9274 0 0 0
144 8 3 0.033922 3.61065 4.08255 22.5825 0 0 0
145 9 1 -0.091211 3.6361 8.57163 22.0339 0 0 0
146 9 1 -0.050311 2.13677 8.30883 21.7982 0 0 0
147 9 2 -0.174311 1.82883 9.01519 20.5578 0 0 0
148 9 2 -0.174311 0.625238 9.04197 19.9047 0 0 0
149 9 1 -0.050311 38.5452 8.23155 20.2667 -1 0 0
150 9 1 -0.091211 37.6252 8.12166 19.0179 -1 0 0
151 9 3 0.033922 4.25567 8.06882 21.2857 0 0 0
152 9 3 0.033922 3.92099 8.17623 -1.87289 0 0 1
153 9 3 0.033922 3.70113 9.66345 22.0168 0 0 0
154 9 3 0.046089 1.90075 7.2492 21.6638 0 0 0
155 9 3 0.046089 1.61608 8.58844 22.7187 0 0 0
156 9 4 0.121889 2.67057 9.43983 20.0201 0 0 0
157 9 4 0.121889 0.675861 9.66175 19.0152 0 0 0
158 9 3 0.046089 37.9124 8.59576 21.0812 -1 0 0
159 9 3 0.046089 38.8719 7.25903 20.6462 -1 0 0
160 9 3 0.033922 38.1036 7.54218 18.223 -1 0 0
161 9 3 0.033922 36.6316 7.71578 19.2287 -1 0 0
162 9 3 0.033922 37.5409 9.1365 18.6184 -1 0 0
163 10 1 -0.091211 10.0136 10.7114 8.20094 0 0 1
164 10 1 -0.050311 9.76321 10.4999 6.68738 0 0 1
165 10 2 -0.174311 9.06209 9.18078 6.49396 0 0 1
166 10 2 -0.174311 9.70222 8.00234 6.04195 0 0 1
167 10 1 -0.050311 11.2647 7.9122 6.00415 0 0 1
168 10 1 -0.091211 11.8279 8.25882 4.586 0 0 1
169 10 3 0.033922 9.13061 10.9794 8.78839 0 0 1
170 10 3 0.033922 10.8233 11.4238 8.38387 0 0 1
171 10 3 0.033922 10.4201 9.78273 8.61186 0 0 1
172 10 3 0.046089 9.09084 11.2952 6.35267 0 0 1
173 10 3 0.046089 10.7215 10.6163 6.17284 0 0 1
174 10 4 0.121889 7.99018 9.1513 6.6615 0 0 1
175 10 4 0.121889 9.17453 7.07106 5.86244 0 0 1
176 10 3 0.046089 11.6339 6.92256 6.2886 0 0 1
177 10 3 0.046089 11.6761 8.64842 6.70078 0 0 1
178 10 3 0.033922 11.4332 9.23469 4.28852 0 0 1
179 10 3 0.033922 12.9197 8.32555 4.59288 0 0 1
180 10 3 0.033922 11.5287 7.51548 3.84136 0 0 1
181 11 1 -0.091211 37.0983 12.8663 2.28025 -1 0 0
182 11 1 -0.050311 35.5638 12.599 2.30057 -1 0 0
183 11 2 -0.174311 35.2397 11.2257 1.87955 -1 0 0
184 11 2 -0.174311 34.8927 10.2109 2.77266 -1 0 0
185 11 1 -0.050311 34.4093 10.3396 4.18738 -1 0 0
186 11 1 -0.091211 33.2543 9.41607 4.34478 -1 0 0
187 11 3 0.033922 37.6752 12.3736 3.06825 -1 0 0
188 11 3 0.033922 37.3046 13.9399 2.31864 -1 0 0
189 11 3 0.033922 37.4347 12.4118 1.34388 -1 0 0
190 11 3 0.046089 35.1725 12.9212 3.26992 -1 0 0
191 11 3 0.046089 34.9599 13.2355 1.64735 -1 0 0
192 11 4 0.121889 35.4566 10.9786 0.845198 -1 0 0
193 11 4 0.121889 34.6946 9.23522 2.34059 -1 0 0
194 11 3 0.046089 34.068 11.3325 4.49453 -1 0 0
195 11 3 0.046089 35.2441 10.0612 4.83716 -1 0 0
196 11 3 0.033922 32.9066 9.56128 5.37172 -1 0 0
197 11 3 0.033922 32.4895 9.72346 3.6256 -1 0 0
198 11 3 0.033922 33.4443 8.35868 4.13881 -1 0 0
199 12 1 -0.091211 1.62274 8.04592 6.73178 0 0 0
200 12 1 -0.050311 2.82406 8.81492 6.34477 0 0 0
201 12 2 -0.174311 3.46872 8.33452 5.08279 0 0 0
202 12 2 -0.174311 4.47821 9.0717 4.55105 0 0 0
203 12 1 -0.050311 5.02469 10.4157 4.97985 0 0 0
204 12 1 -0.091211 6.44439 10.7037 4.42822 0 0 0
205 12 3 0.033922 1.88753 6.98799 6.6466 0 0 0
206 12 3 0.033922 0.774873 8.15759 6.04972 0 0 0
207 12 3 0.033922 1.35705 8.27341 7.76823 0 0 0
208 12 3 0.046089 2.47381 9.84021 6.19416 0 0 0
209 12 3 0.046089 3.54343 8.87944 7.1663 0 0 0
210 12 4 0.121889 3.29748 7.48333 4.43153 0 0 0
211 12 4 0.121889 4.90113 8.56604 3.68885 0 0 0
212 12 3 0.046089 5.0954 10.4935 6.06867 0 0 0
213 12 3 0.046089 4.32279 11.2091 4.70718 0 0 0
214 12 3 0.033922 6.5476 10.4133 3.37864 0 0 0
215 12 3 0.033922 6.79715 11.7358 4.5109 0 0 0
216 12 3 0.033922 7.14301 10.0203 4.91971 0 0 0
217 13 1 -0.091211 9.12031 10.7682 12.2139 0 0 0
218 13 1 -0.050311 7.62555 10.5086 11.9229 0 0 0
219 13 2 -0.174311 7.48358 9.43877 10.8703 0 0 0
220 13 2 -0.174311 6.32266 9.34346 10.1421 0 0 0
221 13 1 -0.050311 5.10934 10.2673 10.1877 0 0 0
222 13 1 -0.091211 3.89752 9.42386 10.2925 0 0 0
223 13 3 0.033922 9.58317 10.8869 11.2299 0 0 0
224 13 3 0.033922 9.60176 9.9196 12.7085 0 0 0
225 13 3 0.033922 9.28132 11.7083 12.7495 0 0 0
226 13 3 0.046089 7.07432 10.2414 12.8291 0 0 0
227 13 3 0.046089 7.16341 11.4118 11.514 0 0 0
228 13 4 0.121889 8.21434 8.66349 10.6632 0 0 0
229 13 4 0.121889 6.28494 8.44399 9.53585 0 0 0
230 13 3 0.046089 5.09209 10.8407 9.25628 0 0 0
231 13 3 0.046089 5.1367 10.9981 11.0012 0 0 0
232 13 3 0.033922 3.90779 8.60278 9.56976 0 0 0
233 13 3 0.033922 3.78537 9.02228 11.3038 0 0 0
234 13 3 0.033922 2.96872 9.96195 10.0819 0 0 0
235 14 1 -0.091211 16.9115 8.48234 18.5866 0 0 0
236 14 1 -0.050311 15.4604 8.95478 18.1954 0 0 0
237 14 2 -0.174311 14.6443 9.50158 19.3522 0 0 0
238 14 2 -0.174311 13.6732 10.472 19.2715 0 0 0
239 14 1 -0.050311 13.2192 11.1723 18.034 0 0 0
240 14 1 -0.091211 11.6967 11.3967 18.1777 0 0 0
241 14 3 0.033922 16.8301 7.73057 19.377 0 0 0
242 14 3 0.033922 17.438 9.36791 18.9542 0 0 0
243 14 3 0.033922 17.443 8.12854 17.6984 0 0 0
244 14 3 0.046089 15.5478 9.68947 17.3897 0 0 0
245 14 3 0.046089 15.0166 7.99952 17.9004 0 0 0
246 14 4 0.121889 14.8005 9.17574 20.3756 0 0 0
247 14 4 0.121889 13.3202 10.7298 20.2649 0 0 0
248 14 3 0.046089 13.4501 10.5876 17.1388 0 0 0
249 14 3 0.046089 13.6884 12.1602 18.0554 0 0 0
250 14 3 0.033922 11.3048 12.0451 17.3887 0 0 0
251 14 3 0.033922 11.1135 10.4716 18.2061 0 0 0
252 14 3 0.033922 11.4137 11.9246 19.093 0 0 0
253 15 1 -0.091211 3.52112 18.2308 17.2037 0 0 0
254 15 1 -0.050311 4.805 18.0532 18.1135 0 0 0
255 15 2 -0.174311 4.5013 17.9537 19.6153 0 0 0
256 15 2 -0.174311 4.49839 16.7762 20.3554 0 0 0
257 15 1 -0.050311 4.77462 15.406 19.8732 0 0 0
258 15 1 -0.091211 3.65933 14.7235 19.1169 0 0 0
259 15 3 0.033922 2.89549 17.4228 17.5939 0 0 0
260 15 3 0.033922 3.7812 18.1802 16.1424 0 0 0
261 15 3 0.033922 2.97773 19.1598 17.399 0 0 0
262 15 3 0.046089 5.35632 17.1832 17.745 0 0 0
263 15 3 0.046089 5.40541 18.9612 18.0058 0 0 0
264 15 4 0.121889 4.2643 18.8936 20.1035 0 0 0
265 15 4 0.121889 4.35128 16.7804 21.4307 0 0 0
266 15 3 0.046089 5.1774 14.8319 20.7127 0 0 0
267 15 3 0.046089 5.67845 15.5257 19.2688 0 0 0
268 15 3 0.033922 3.51825 15.3573 18.2366 0 0 0
269 15 3 0.033922 4.09473 13.8013 18.7213 0 0 0
270 15 3 0.033922 2.73467 14.4645 19.6408 0 0 0
271 16 1 -0.091211 9.3728 19.5345 6.31433 0 0 0
272 16 1 -0.050311 8.30257 20.3827 5.72228 0 0 0
273 16 2 -0.174311 8.08524 -0.100722 6.53389 0 1 0
274 16 2 -0.174311 7.07087 0.809885 6.31808 0 1 0
275 16 1 -0.050311 6.04626 0.689825 5.22923 0 1 0
276 16 1 -0.091211 5.93523 2.02282 4.45431 0 1 0
277 16 3 0.033922 10.3709 19.9105 6.07156 0 0 0
278 16 3 0.033922 9.40127 18.492 5.98444 0 0 0
279 16 3 0.033922 9.41041 19.5264 7.40753 0 0 0
280 16 3 0.046089 8.39395 20.5144 4.64022 0 0 0
281 16 3 0.046089 7.42265 19.7499 5.87035 0 0 0
282 16 4 0.121889 8.85157 0.180841 7.24902 0 1 0
283 16 4 0.121889 7.16117 1.73773 6.8739 0 1 0
284 16 3 0.046089 5.11638 0.318821 5.66995 0 1 0
285 16 3 0.046089 6.31633 21.7349 4.49653 0 0 0
286 16 3 0.033922 5.24053 1.94778 3.61269 0 1 0
287 16 3 0.033922 5.52225 2.74294 5.16667 0 1 0
288 16 3 0.033922 6.93185 2.34617 4.1401 0 1 0
289 17 1 -0.091211 11.1088 14.6774 14.8687 0 0 0
290 17 1 -0.050311 9.81282 15.4705 14.8341 0 0 0
291 17 2 -0.174311 8.91491 15.1976 13.6361 0 0 0
292 17 2 -0.174311 8.0317 16.0696 13.1018 0 0 0
293 17 1 -0.050311 7.73331 17.3859 13.6536 0 0 0
294 17 1 -0.091211 6.61392 17.1989 14.797 0 0 0
295 17 3 0.033922 10.7996 13.6319 14.9576 0 0 0
296 17 3 0.033922 11.7235 14.9624 15.7275 0 0 0
297 17 3 0.033922 11.6839 14.7896 13.945 0 0 0
298 17 3 0.046089 9.31638 15.3602 15.8026 0 0 0
299 17 3 0.046089 10.1309 16.5146 14.9064 0 0 0
300 17 4 0.121889 9.21396 14.2827 13.1346 0 0 0
301 17 4 0.121889 7.58255 15.7256 12.1755 0 0 0
302 17 3 0.046089 7.31511 17.9796 12.8355 0 0 0
303 17 3 0.046089 8.64648 17.8854 13.99 0 0 0
304 17 3 0.033922 5.98546 18.0942 14.8039 0 0 0
305 17 3 0.033922 5.89652 16.4154 14.5359 0 0 0
306 17 3 0.033922 7.06561 17.0017 15.7735 0 0 0
307 18 1 -0.091211 1.4671 12.1239 -1.48068 0 0 1
308 18 1 -0.050311 2.48833 12.2152 -0.405198 0 0 1
309 18 2 -0.174311 3.07476 10.8914 0.0797883 0 0 1
310 18 2 -0.174311 2.57833 10.3021 1.22147 0 0 1
311 18 1 -0.050311 1.38417 10.8825 2.04578 0 0 1
312 18 1 -0.091211 0.839149 9.98233 3.16417 0 0 1
313 18 3 0.033922 0.574764 11.6619 -1.04845 0 0 1
314 18 3 0.033922 1.77351 11.509 22.5543 0 0 0
315 18 3 0.033922 1.15933 13.1319 23.1124 0 0 0
316 18 3 0.046089 3.33096 12.8457 -0.703598 0 0 1
317 18 3 0.046089 1.96897 12.7527 0.393529 0 0 1
318 18 4 0.121889 3.91466 10.4792 -0.470273 0 0 1
319 18 4 0.121889 3.13527 9.45754 1.61453 0 0 1
320 18 3 0.046089 0.575619 11.1092 1.34476 0 0 1
321 18 3 0.046089 1.67496 11.8684 2.41998 0 0 1
322 18 3 0.033922 0.500457 9.02672 2.75346 0 0 1
323 18 3 0.033922 1.62384 9.84253 3.91335 0 0 1
324 18 3 0.033922 -0.014864 10.3846 3.71678 0 0 1
325 19 1 -0.091211 20.3107 8.74266 22.8961 0 0 -1
326 19 1 -0.050311 19.1362 8.3852 -1.05102 0 0 0
327 19 2 -0.174311 17.9107 7.92726 23.035 0 0 -1
328 19 2 -0.174311 16.5688 8.08387 -1.53319 0 0 0
329 19 1 -0.050311 16.1445 8.5138 -0.15457 0 0 0
330 19 1 -0.091211 15.0037 7.57856 0.290928 0 0 0
331 19 3 0.033922 20.6468 7.81109 22.4315 0 0 -1
332 19 3 0.033922 21.1858 9.10345 -1.44182 0 0 0
333 19 3 0.033922 19.9367 9.50651 22.2082 0 0 -1
334 19 3 0.046089 19.3876 7.56174 -0.376233 0 0 0
335 19 3 0.046089 18.9283 9.26655 -0.437364 0 0 0
336 19 4 0.121889 18.2012 7.54075 22.0634 0 0 -1
337 19 4 0.121889 15.7939 7.69699 22.6989 0 0 -1
338 19 3 0.046089 15.749 9.53127 -0.224875 0 0 0
339 19 3 0.046089 17.0115 8.49985 0.512282 0 0 0
340 19 3 0.033922 15.4521 6.63612 0.618535 0 0 0
341 19 3 0.033922 14.4044 7.90597 1.14548 0 0 0
342 19 3 0.033922 14.3439 7.32255 -0.543162 0 0 0
343 20 1 -0.091211 10.6821 20.5484 14.3535 0 -1 0
344 20 1 -0.050311 11.9333 21.0011 15.0949 0 -1 0
345 20 2 -0.174311 13.0398 21.579 14.1934 0 -1 0
346 20 2 -0.174311 13.8222 0.859558 14.4996 0 0 0
347 20 1 -0.050311 13.6481 1.70194 15.7956 0 0 0
348 20 1 -0.091211 14.8702 2.62652 15.9105 0 0 0
349 20 3 0.033922 10.1062 21.4276 14.05 0 -1 0
350 20 3 0.033922 10.0055 19.94 14.9606 0 -1 0
351 20 3 0.033922 10.916 20.0224 13.4234 0 -1 0
352 20 3 0.046089 11.612 21.697 15.8753 0 -1 0
353 20 3 0.046089 12.4116 20.1396 15.5699 0 -1 0
354 20 4 0.121889 13.2616 20.9964 13.3049 0 -1 0
355 20 4 0.121889 14.6448 1.14293 13.8508 0 0 0
356 20 3 0.046089 13.6458 1.03003 16.6588 0 0 0
357 20 3 0.046089 12.7337 2.2966 15.7126 0 0 0
358 20 3 0.033922 15.8171 2.11246 16.0993 0 0 0
359 20 3 0.033922 15.0742 3.27066 15.0503 0 0 0
360 20 3 0.033922 14.7048 3.24215 16.7995 0 0 0
361 21 1 -0.091211 2.35841 0.215486 19.1131 0 0 0
362 21 1 -0.050311 1.12596 21.2145 19.3654 0 -1 0
363 21 2 -0.174311 1.14776 20.5602 20.7438 0 -1 0
364 21 2 -0.174311 0.27742 20.7574 21.7503 0 -1 0
365 21 1 -0.050311 38.2941 -0.155867 21.6904 -1 0 0
366 21 1 -0.091211 37.9979 0.378143 23.0717 -1 0 0
367 21 3 0.033922 2.37755 1.00755 19.8673 0 0 0
368 21 3 0.033922 2.26147 0.662024 18.1192 0 0 0
369 21 3 0.033922 3.27914 21.4362 19.0976 0 -1 0
370 21 3 0.046089 0.233099 21.836 19.2509 0 -1 0
371 21 3 0.046089 0.971347 20.3898 18.6635 0 -1 0
372 21 4 0.121889 1.95025 19.8601 20.9533 0 -1 0
373 21 4 0.121889 0.452274 20.1734 22.6483 0 -1 0
374 21 3 0.046089 37.4366 21.1276 21.2628 -1 -1 0
375 21 3 0.046089 38.4735 0.808055 21.2054 -1 0 0
376 21 3 0.033922 38.771 1.08232 -1.49345 -1 0 1
377 21 3 0.033922 37.0276 0.883204 23.0716 -1 0 0
378 21 3 0.033922 38.0179 21.4099 -1.04709 -1 -1 1
379 22 1 -0.091211 7.13877 21.2735 17.4436 0 -1 0
380 22 1 -0.050311 6.83413 -0.0465438 16.0372 0 0 0
381 22 2 -0.174311 6.52176 1.42327 15.8958 0 0 0
382 22 2 -0.174311 6.0533 1.97362 14.6693 0 0 0
383 22 1 -0.050311 6.16887 1.2523 13.3095 0 0 0
384 22 1 -0.091211 5.5697 2.14417 12.2018 0 0 0
385 22 3 0.033922 7.95171 0.0389785 17.8945 0 0 0
386 22 3 0.033922 7.42488 20.2178 17.4514 0 -1 0
387 22 3 0.033922 6.22249 21.3707 18.0332 0 -1 0
388 22 3 0.046089 7.60932 -0.396027 15.3491 0 0 0
389 22 3 0.046089 5.93603 21.1951 15.7808 0 -1 0
390 22 4 0.121889 6.59291 2.04393 16.7833 0 0 0
391 22 4 0.121889 5.74499 3.01293 14.6169 0 0 0
392 22 3 0.046089 5.6869 0.272484 13.2444 0 0 0
393 22 3 0.046089 7.24318 1.12953 13.1442 0 0 0
394 22 3 0.033922 4.56553 2.50087 12.4487 0 0 0
395 22 3 0.033922 6.32288 2.93188 12.108 0 0 0
396 22 3 0.033922 5.4839 1.63593 11.237 0 0 0
397 23 1 -0.091211 6.43845 5.7569 22.7875 0 0 -1
398 23 1 -0.050311 6.19302 6.32369 -0.628665 0 0 0
399 23 2 -0.174311 6.9462 7.6892 -0.770404 0 0 0
400 23 2 -0.174311 7.72518 8.3031 0.223744 0 0 0
401 23 1 -0.050311 8.03371 7.70445 1.60072 0 0 0
402 23 1 -0.091211 9.45348 7.25436 1.79661 0 0 0
403 23 3 0.033922 6.07934 4.7262 22.7147 0 0 -1
404 23 3 0.033922 7.50505 5.79984 22.5486 0 0 -1
405 23 3 0.033922 5.90483 6.36006 22.0472 0 0 -1
406 23 3 0.046089 5.11118 6.4317 -0.508361 0 0 0
407 23 3 0.046089 6.53201 5.59346 0.111903 0 0 0
408 23 4 0.121889 6.77108 8.25399 -1.68052 0 0 0
409 23 4 0.121889 8.19624 9.25315 -0.0074993 0 0 0
410 23 3 0.046089 7.34731 6.88552 1.83477 0 0 0
411 23 3 0.046089 7.72696 8.43598 2.35394 0 0 0
412 23 3 0.033922 9.8332 6.75599 0.899938 0 0 0
413 23 3 0.033922 10.1118 8.10162 2.00964 0 0 0
414 23 3 0.033922 9.51872 6.54114 2.62343 0 0 0
415 24 1 -0.091211 4.53024 14.0449 2.69635 0 0 0
416 24 1 -0.050311 5.85739 14.7257 2.19272 0 0 0
417 24 2 -0.174311 6.76526 13.6056 1.72075 0 0 0
418 24 2 -0.174311 8.04374 13.841 1.25572 0 0 0
419 24 1 -0.050311 8.53679 15.2447 0.999244 0 0 0
420 24 1 -0.091211 9.81769 15.2984 1.87651 0 0 0
421 24 3 0.033922 4.13573 13.3963 1.90878 0 0 0
422 24 3 0.033922 3.75491 14.7433 3.02441 0 0 0
423 24 3 0.033922 4.77606 13.3417 3.49743 0 0 0
424 24 3 0.046089 5.7687 15.4701 1.39612 0 0 0
425 24 3 0.046089 6.38088 15.1923 3.03223 0 0 0
426 24 4 0.121889 6.534 12.5453 1.70409 0 0 0
427 24 4 0.121889 8.62901 12.9289 1.19608 0 0 0
428 24 3 0.046089 7.85183 16.0475 1.28706 0 0 0
429 24 3 0.046089 8.72071 15.331 -0.0756081 0 0 0
430 24 3 0.033922 10.5394 14.5347 1.57239 0 0 0
431 24 3 0.033922 10.3183 16.2683 1.80357 0 0 0
432 24 3 0.033922 9.5722 15.1124 2.92612 0 0 0
433 25 1 -0.091211 7.01307 9.24142 16.9012 0 0 0
434 25 1 -0.050311 7.68971 7.97702 16.2833 0 0 0
435 25 2 -0.174311 7.08511 7.73439 14.9238 0 0 0
436 25 2 -0.174311 7.71788 7.06285 13.8675 0 0 0
437 25 1 -0.050311 9.07056 6.36125 13.8696 0 0 0
438 25 1 -0.091211 8.87423 4.8888 13.43 0 0 0
439 25 3 0.033922 7.40044 9.59571 17.8609 0 0 0
440 25 3 0.033922 5.93107 9.10635 16.9882 0 0 0
441 25 3 0.033922 7.27275 10.1025 16.2786 0 0 0
442 25 3 0.046089 8.77748 8.07896 16.3373 0 0 0
443 25 3 0.046089 7.4048 7.10237 16.8753 0 0 0
444 25 4 0.121889 6.16441 8.25246 14.6751 0 0 0
445 25 4 0.121889 7.13428 7.11929 12.9542 0 0 0
446 25 3 0.046089 9.56305 6.3946 14.8457 0 0 0
447 25 3 0.046089 9.72237 6.74344 13.0786 0 0 0
448 25 3 0.033922 8.50267 4.83136 12.4028 0 0 0
449 25 3 0.033922 9.77643 4.27833 13.5296 0 0 0
450 25 3 0.033922 8.06601 4.46124 14.0304 0 0 0
451 26 1 -0.091211 2.93335 20.9126 13.1835 0 -1 0
452 26 1 -0.050311 2.33501 20.898 14.5706 0 -1 0
453 26 2 -0.174311 1.52124 0.334704 14.799 0 0 0
454 26 2 -0.174311 0.145031 0.388511 14.833 0 0 0
455 26 1 -0.050311 38.432 20.9753 14.5114 -1 -1 0
456 26 1 -0.091211 38.2653 20.2321 15.7556 -1 -1 0
457 26 3 0.033922 2.1301 20.822 12.4465 0 -1 0
458 26 3 0.033922 3.64952 20.1019 13.0209 0 -1 0
459 26 3 0.033922 3.5705 21.7935 13.063 0 -1 0
460 26 3 0.046089 1.79816 19.9602 14.7406 0 -1 0
461 26 3 0.046089 3.24704 21.0175 15.1625 0 -1 0
462 26 4 0.121889 2.01398 1.24416 15.1278 0 0 0
463 26 4 0.121889 38.8009 1.32044 14.9228 -1 0 0
464 26 3 0.046089 -0.307689 20.3694 13.7284 0 -1 0
465 26 3 0.046089 37.4535 21.2905 14.1379 -1 -1 0
466 26 3 0.033922 37.364 19.6196 15.8496 -1 -1 0
467 26 3 0.033922 -0.0890507 19.5606 15.9047 0 -1 0
468 26 3 0.033922 38.3265 20.884 16.6319 -1 -1 0
469 27 1 -0.091211 19.4749 12.06 6.20181 0 0 0
470 27 1 -0.050311 20.74 12.8939 6.53207 0 0 0
471 27 2 -0.174311 21.0239 13.7772 5.3485 0 0 0
472 27 2 -0.174311 21.3903 13.3847 4.05283 0 0 0
473 27 1 -0.050311 21.7917 11.9523 3.8403 0 0 0
474 27 1 -0.091211 20.9627 11.2084 2.77726 0 0 0
475 27 3 0.033922 19.1531 11.5484 7.11354 0 0 0
476 27 3 0.033922 19.7697 11.3108 5.46131 0 0 0
477 27 3 0.033922 18.5681 12.5707 5.86482 0 0 0
478 27 3 0.046089 20.5946 13.54 7.40272 0 0 0
479 27 3 0.046089 21.6118 12.2633 6.72913 0 0 0
480 27 4 0.121889 20.8186 14.8205 5.56625 0 0 0
481 27 4 0.121889 21.5644 14.0804 3.2382 0 0 0
482 27 3 0.046089 21.9136 11.3113 4.71825 0 0 0
483 27 3 0.046089 22.7689 11.9566 3.34869 0 0 0
484 27 3 0.033922 19.9197 11.1358 3.09902 0 0 0
485 27 3 0.033922 20.9495 11.6198 1.76376 0 0 0
486 27 3 0.033922 21.2832 10.1648 2.70823 0 0 0
487 28 1 -0.091211 8.48905 21.5006 1.58348 0 -1 0
488 28 1 -0.050311 7.4433 20.6984 0.828105 0 -1 0
489 28 2 -0.174311 7.00926 19.3902 1.56044 0 -1 0
490 28 2 -0.174311 5.86329 18.7178 1.15299 0 -1 0
491 28 1 -0.050311 4.9282 19.1958 0.0719006 0 -1 0
492 28 1 -0.091211 4.907 18.302 -1.16668 0 -1 0
493 28 3 0.033922 8.6761 0.658986 1.11258 0 0 0
494 28 3 0.033922 9.3772 20.8762 1.7169 0 -1 0
495 28 3 0.033922 8.08594 -0.167109 2.59022 0 0 0
496 28 3 0.046089 6.55114 21.3313 0.839281 0 -1 0
497 28 3 0.046089 7.73245 20.464 -0.200494 0 -1 0
498 28 4 0.121889 7.53707 19.0599 2.44942 0 -1 0
499 28 4 0.121889 5.62477 17.7686 1.62205 0 -1 0
500 28 3 0.046089 5.13595 20.2016 -0.304667 0 -1 0
501 28 3 0.046089 3.94106 19.3416 0.520048 0 -1 0
502 28 3 0.033922 4.42301 18.7335 22.8385 0 -1 -1
503 28 3 0.033922 5.96286 18.2012 -1.43421 0 -1 0
504 28 3 0.033922 4.4856 17.3137 -0.960786 0 -1 0
505 29 1 -0.091211 11.6686 7.77232 10.3021 0 0 0
506 29 1 -0.050311 11.2504 6.27383 10.0577 0 0 0
507 29 2 -0.174311 10.0063 6.09766 9.10934 0 0 0
508 29 2 -0.174311 9.37435 4.88698 8.95592 0 0 0
509 29 1 -0.050311 9.79963 3.55091 9.53898 0 0 0
510 29 1 -0.091211 9.07136 2.35413 8.82304 0 0 0
511 29 3 0.033922 10.8539 8.4109 10.6558 0 0 0
512 29 3 0.033922 11.9969 8.13449 9.32355 0 0 0
513 29 3 0.033922 12.4687 7.89707 11.0375 0 0 0
514 29 3 0.046089 12.1074 5.69598 9.6998 0 0 0
515 29 3 0.046089 10.9754 5.82388 11.0161 0 0 0
516 29 4 0.121889 9.59085 7.03265 8.74721 0 0 0
517 29 4 0.121889 8.46787 4.80992 8.36407 0 0 0
518 29 3 0.046089 9.71692 3.51921 10.6293 0 0 0
519 29 3 0.046089 10.8771 3.41698 9.40579 0 0 0
520 29 3 0.033922 9.06176 2.52856 7.7432 0 0 0
521 29 3 0.033922 9.45104 1.34626 9.01442 0 0 0
522 29 3 0.033922 8.01891 2.43583 9.10974 0 0 0
523 30 1 -0.091211 13.7109 15.5681 17.8878 0 0 0
524 30 1 -0.050311 12.916 14.9127 18.9904 0 0 0
525 30 2 -0.174311 12.723 15.8492 20.1363 0 0 0
526 30 2 -0.174311 12.5629 15.471 21.4898 0 0 0
527 30 1 -0.050311 12.415 14.0602 21.9224 0 0 0
528 30 1 -0.091211 12.0301 14.1698 -1.52295 0 0 1
529 30 3 0.033922 13.8385 14.9281 17.0099 0 0 0
530 30 3 0.033922 14.6959 15.8642 18.26 0 0 0
531 30 3 0.033922 13.1089 16.4244 17.5701 0 0 0
532 30 3 0.046089 11.9707 14.5866 18.547 0 0 0
533 30 3 0.046089 13.513 14.0746 19.3615 0 0 0
534 30 4 0.121889 13.0083 16.8844 19.9786 0 0 0
535 30 4 0.121889 12.6696 16.3108 22.1689 0 0 0
536 30 3 0.046089 13.3603 13.5116 21.8775 0 0 0
537 30 3 0.046089 11.7333 13.4392 21.3339 0 0 0
538 30 3 0.033922 11.1027 14.7249 -1.35497 0 0 1
539 30 3 0.033922 11.7761 13.2069 -1.07032 0 0 1
540 30 3 0.033922 12.9156 14.6132 -1.05821 0 0 1
541 31 1 -0.091211 18.5478 4.15294 14.5194 0 1 0
542 31 1 -0.050311 19.4003 3.28435 15.5194 0 1 0
543 31 2 -0.174311 19.0703 1.82752 15.4625 0 1 0
544 31 2 -0.174311 18.6199 1.05595 16.5512 0 1 0
545 31 1 -0.050311 18.3809 1.57213 17.9117 0 1 0
546 31 1 -0.091211 17.377 0.722652 18.6726 0 1 0
547 31 3 0.033922 17.568 4.37088 14.9543 0 1 0
548 31 3 0.033922 18.3266 3.65871 13.5689 0 1 0
549 31 3 0.033922 19.0676 5.0758 14.246 0 1 0
550 31 3 0.046089 20.4443 3.41416 15.22 0 1 0
551 31 3 0.046089 19.1898 3.67697 16.5185 0 1 0
552 31 4 0.121889 19.1468 1.29119 14.522 0 1 0
553 31 4 0.121889 18.5053 0.00135641 16.3217 0 1 0
554 31 3 0.046089 17.9189 2.53923 17.6927 0 1 0
555 31 3 0.046089 19.2841 1.55509 18.5285 0 1 0
556 31 3 0.033922 16.3954 0.894647 18.2216 0 1 0
557 31 3 0.033922 17.5597 21.4586 18.5875 0 0 0
558 31 3 0.033922 17.2612 0.944445 19.7375 0 1 0
559 32 1 -0.091211 17.4678 0.593797 1.96039 0 1 0
560 32 1 -0.050311 17.6774 0.764463 3.45264 0 1 0
561 32 2 -0.174311 16.3688 0.914523 4.18183 0 1 0
562 32 2 -0.174311 16.3003 0.966459 5.54231 0 1 0
563 32 1 -0.050311 17.4654 0.996116 6.53317 0 1 0
564 32 1 -0.091211 17.3542 21.5684 7.37514 0 0 0
565 32 3 0.033922 17.1644 1.49849 1.42557 0 1 0
566 32 3 0.033922 16.7328 21.6162 1.77524 0 0 0
567 32 3 0.033922 18.3707 0.215392 1.47229 0 1 0
568 32 3 0.046089 18.3079 21.7373 3.76301 0 0 0
569 32 3 0.046089 18.1423 1.74187 3.61091 0 1 0
570 32 4 0.121889 15.4728 1.10533 3.59978 0 1 0
571 32 4 0.121889 15.3555 1.08064 6.06411 0 1 0
572 32 3 0.046089 17.4915 1.95478 7.05935 0 1 0
573 32 3 0.046089 18.4605 0.845332 6.10469 0 1 0
574 32 3 0.033922 18.1508 21.4725 8.11867 0 0 0
575 32 3 0.033922 16.373 21.5688 7.8586 0 0 0
576 32 3 0.033922 17.4964 20.6446 6.80687 0 0 0
577 33 1 -0.091211 11.8027 16.0561 10.8949 0 0 0
578 33 1 -0.050311 11.2637 17.1763 10.0549 0 0 0
579 33 2 -0.174311 9.80985 17.012 9.83313 0 0 0
580 33 2 -0.174311 8.83921 17.9626 10.069 0 0 0
581 33 1 -0.050311 9.01394 19.3661 10.6589 0 0 0
582 33 1 -0.091211 7.85692 20.2736 10.261 0 0 0
583 33 3 0.033922 11.4008 15.1001 10.5467 0 0 0
584 33 3 0.033922 11.7457 16.0868 11.9869 0 0 0
585 33 3 0.033922 12.8933 16.0133 10.8225 0 0 0
586 33 3 0.046089 11.4336 18.0925 10.6279 0 0 0
587 33 3 0.046089 11.8097 17.1649 9.10702 0 0 0
588 33 4 0.121889 9.59953 16.0139 9.46212 0 0 0
589 33 4 0.121889 7.888 17.5778 9.71539 0 0 0
590 33 3 0.046089 9.99003 19.7471 10.3448 0 0 0
591 33 3 0.046089 8.98145 19.2833 11.7491 0 0 0
592 33 3 0.033922 6.94679 19.6691 10.3135 0 0 0
593 33 3 0.033922 7.91754 21.2313 10.7861 0 0 0
594 33 3 0.033922 7.7522 20.5837 9.21719 0 0 0
595 34 1 -0.091211 22.6333 16.1173 16.4531 0 0 0
596 34 1 -0.050311 21.8895 16.0862 15.1373 0 0 0
597 34 2 -0.174311 22.4404 14.9457 14.3823 0 0 0
598 34 2 -0.174311 22.3745 14.8653 13.0386 0 0 0
599 34 1 -0.050311 21.8634 15.8936 12.1044 0 0 0
600 34 1 -0.091211 22.9219 16.3118 11.1196 0 0 0
601 34 3 0.033922 22.4702 15.1554 16.9478 0 0 0
602 34 3 0.033922 22.4454 16.9533 17.133 0 0 0
603 34 3 0.033922 23.6988 16.3016 16.2878 0 0 0
604 34 3 0.046089 20.8348 15.8532 15.3103 0 0 0
605 34 3 0.046089 22.0799 16.9996 14.5664 0 0 0
606 34 4 0.121889 22.6326 14.0482 14.9616 0 0 0
607 34 4 0.121889 22.5332 13.8821 12.6072 0 0 0
608 34 3 0.046089 21.5526 16.7676 12.6842 0 0 0
609 34 3 0.046089 21.0146 15.4755 11.5556 0 0 0
610 34 3 0.033922 23.4889 15.4365 10.7896 0 0 0
611 34 3 0.033922 22.3779 16.7116 10.259 0 0 0
612 34 3 0.033922 23.5688 17.1071 11.5012 0 0 0
613 35 1 -0.091211 -0.290691 15.2594 17.5642 0 0 0
614 35 1 -0.050311 0.600595 13.9763 17.5478 0 0 0
615 35 2 -0.174311 -0.0695062 12.9605 16.6614 0 0 0
616 35 2 -0.174311 0.620742 11.861 16.0704 0 0 0
617 35 1 -0.050311 2.03026 11.4946 16.3799 0 0 0
618 35 1 -0.091211 2.33804 10.1312 15.5759 0 0 0