ITEM: TIMESTEP
80200
ITEM: NUMBER OF ATOMS
1800
ITEM: BOX BOUNDS pp pp pp
-4.9859926404051578e+00 4.3794008140404117e+01
1.6763046036939553e+00 1.9932350896306520e+01
-1.3701956975368645e+00 2.2623929197536413e+01
ITEM: ATOMS id mol type q x y z ix iy iz
1 1 1 -0.091211 6.25785 8.12485 15.5489 0 -1 0
2 1 1 -0.050311 5.77188 9.35306 14.7606 0 -1 0
3 1 2 -0.174311 6.37745 9.45086 13.3486 0 -1 0
4 1 2 -0.174311 6.28205 10.6167 12.5836 0 -1 0
5 1 1 -0.050311 5.63666 11.8537 12.9096 0 -1 0
6 1 1 -0.091211 4.75977 12.3404 11.8016 0 -1 0
7 1 3 0.033922 5.93532 7.21681 15.0311 0 -1 0
8 1 3 0.033922 5.73405 7.98866 16.4995 0 -1 0
9 1 3 0.033922 7.34531 8.22861 15.6062 0 -1 0
10 1 3 0.046089 4.67921 9.31801 14.7222 0 -1 0
11 1 3 0.046089 6.07765 10.254 15.3004 0 -1 0
12 1 4 0.121889 6.84905 8.56801 12.9288 0 -1 0
13 1 4 0.121889 6.6958 10.5216 11.5847 0 -1 0
14 1 3 0.046089 6.3938 12.6076 13.1442 0 -1 0
15 1 3 0.046089 5.04293 11.8239 13.8279 0 -1 0
16 1 3 0.033922 4.44231 13.362 12.0301 0 -1 0
17 1 3 0.033922 5.1576 12.3211 10.7828 0 -1 0
18 1 3 0.033922 3.8308 11.7706 11.7067 0 -1 0
19 2 1 -0.091211 3.85193 3.32976 9.40623 0 0 0
20 2 1 -0.050311 4.47952 4.69557 9.06907 0 0 0
21 2 2 -0.174311 4.62844 5.53661 10.3721 0 0 0
22 2 2 -0.174311 5.82758 5.69067 11.0526 0 0 0
23 2 1 -0.050311 7.20727 5.13425 10.8257 0 0 0
24 2 1 -0.091211 8.27151 6.20622 10.8349 0 0 0
25 2 3 0.033922 3.0097 3.47251 10.0896 0 0 0
26 2 3 0.033922 4.65187 2.7148 9.8288 0 0 0
27 2 3 0.033922 3.41679 2.83925 8.5306 0 0 0
28 2 3 0.046089 5.46563 4.46833 8.65363 0 0 0
29 2 3 0.046089 3.86599 5.2384 8.3441 0 0 0
30 2 4 0.121889 3.76255 6.04101 10.789 0 0 0
31 2 4 0.121889 5.84656 6.3364 11.9248 0 0 0
32 2 3 0.046089 7.32691 4.54159 9.914 0 0 0
33 2 3 0.046089 7.45904 4.44424 11.6363 0 0 0
34 2 3 0.033922 9.25775 5.84657 10.5273 0 0 0
35 2 3 0.033922 8.05169 7.00723 10.1231 0 0 0
36 2 3 0.033922 8.31992 6.5904 11.858 0 0 0
37 3 1 -0.091211 2.07893 3.77149 15.5507 0 0 0
38 3 1 -0.050311 3.25903 2.87435 15.036 0 0 0
39 3 2 -0.174311 2.71795 1.74462 14.1695 0 0 0
40 3 2 -0.174311 3.46913 18.9427 13.6688 0 -1 0
41 3 1 -0.050311 4.93266 18.805 13.9474 0 -1 0
42 3 1 -0.091211 5.79713 18.8519 12.7006 0 -1 0
43 3 3 0.033922 1.48057 4.12708 14.7068 0 0 0
44 3 3 0.033922 2.49785 4.68999 15.972 0 0 0
45 3 3 0.033922 1.42555 3.16661 16.1862 0 0 0
46 3 3 0.046089 3.92487 3.48928 14.4235 0 0 0
47 3 3 0.046089 3.84736 2.51081 15.8835 0 0 0
48 3 4 0.121889 1.66526 1.70544 13.9081 0 0 0
49 3 4 0.121889 2.98548 18.1792 13.0678 0 -1 0
50 3 3 0.046089 5.08325 17.8075 14.3703 0 -1 0
51 3 3 0.046089 5.35275 19.487 14.6924 0 -1 0
52 3 3 0.033922 6.85778 18.8714 12.9676 0 -1 0
53 3 3 0.033922 5.63551 17.9979 12.0364 0 -1 0
54 3 3 0.033922 5.47045 19.663 12.0432 0 -1 0
55 4 1 -0.091211 -1.20276 18.5377 11.9123 0 -1 0
56 4 1 -0.050311 -1.30644 17.9112 13.2992 0 -1 0
57 4 2 -0.174311 -1.50853 18.9893 14.3669 0 -1 0
58 4 2 -0.174311 -0.887354 19.0045 15.5699 0 -1 0
59 4 1 -0.050311 0.00766267 17.9242 16.0598 0 -1 0
60 4 1 -0.091211 0.601256 18.2904 17.4467 0 -1 0
61 4 3 0.033922 -2.04295 19.2254 11.7789 0 -1 0
62 4 3 0.033922 -1.42155 17.7143 11.2261 0 -1 0
63 4 3 0.033922 -0.301412 19.102 11.6558 0 -1 0
64 4 3 0.046089 -2.22831 17.3229 13.2746 0 -1 0
65 4 3 0.046089 -0.439472 17.2662 13.4693 0 -1 0
66 4 4 0.121889 -2.18544 19.8054 14.1349 0 -1 0
67 4 4 0.121889 -1.0042 1.56912 16.2705 0 0 0
68 4 3 0.046089 0.768589 17.6352 15.3289 0 -1 0
69 4 3 0.046089 -0.516341 16.9666 16.1311 0 -1 0
70 4 3 0.033922 -0.19076 18.5313 18.1618 0 -1 0
71 4 3 0.033922 1.17695 17.4031 17.7258 0 -1 0
72 4 3 0.033922 1.26001 19.1548 17.3217 0 -1 0
73 5 1 -0.091211 -4.1704 10.139 9.13294 0 0 0
74 5 1 -0.050311 43.3507 10.6933 8.42855 -1 0 0
75 5 2 -0.174311 42.0802 10.0146 8.94837 -1 0 0
76 5 2 -0.174311 41.0436 9.55252 8.15966 -1 0 0
77 5 1 -0.050311 41.165 9.20592 6.65533 -1 0 0
78 5 1 -0.091211 39.793 9.08394 6.09186 -1 0 0
79 5 3 0.033922 -4.12671 10.4775 10.1722 0 0 0
80 5 3 0.033922 -3.26223 10.5104 8.64934 0 0 0
81 5 3 0.033922 -4.24601 9.0481 9.10234 0 0 0
82 5 3 0.046089 43.3202 11.742 8.73817 -1 0 0
83 5 3 0.046089 43.3911 10.5446 7.34552 -1 0 0
84 5 4 0.121889 41.8785 10.2101 9.99679 -1 0 0
85 5 4 0.121889 40.1212 9.26918 8.6565 -1 0 0
86 5 3 0.046089 41.5624 8.1868 6.64691 -1 0 0
87 5 3 0.046089 41.7836 9.83881 6.01239 -1 0 0
88 5 3 0.033922 39.2171 10.0123 6.14637 -1 0 0
89 5 3 0.033922 39.8676 8.90945 5.01451 -1 0 0
90 5 3 0.033922 39.2405 8.23128 6.49718 -1 0 0
91 6 1 -0.091211 6.7996 3.3636 0.916344 0 0 1
92 6 1 -0.050311 7.00211 3.34798 -0.613596 0 0 1
93 6 2 -0.174311 5.87526 2.53494 22.6928 0 0 0
94 6 2 -0.174311 5.55452 2.68563 21.3297 0 0 0
95 6 1 -0.050311 6.23109 3.60196 20.3596 0 0 0
96 6 1 -0.091211 5.21531 4.44092 19.7478 0 0 0
97 6 3 0.033922 7.45726 4.05544 1.45065 0 0 1
98 6 3 0.033922 6.85241 2.37436 1.38033 0 0 1
99 6 3 0.033922 5.79496 3.77789 1.04161 0 0 1
100 6 3 0.046089 7.08437 4.40941 -0.865102 0 0 1
101 6 3 0.046089 7.97419 2.92703 -0.886534 0 0 1
102 6 4 0.121889 5.35653 1.89979 -0.590288 0 0 1
103 6 4 0.121889 4.68008 2.1432 20.9846 0 0 0
104 6 3 0.046089 6.64217 2.95062 19.5828 0 0 0
105 6 3 0.046089 7.07555 4.16134 20.7727 0 0 0
106 6 3 0.033922 5.81536 4.98113 19.0097 0 0 0
107 6 3 0.033922 4.49466 3.83643 19.1893 0 0 0
108 6 3 0.033922 4.7893 5.10468 20.5058 0 0 0
109 7 1 -0.091211 35.0216 2.11891 19.6386 -1 1 -1
110 7 1 -0.050311 33.5376 2.6663 19.4134 -1 1 -1
111 7 2 -0.174311 33.5558 3.89545 18.48 -1 1 -1
112 7 2 -0.174311 32.9584 4.00036 17.2293 -1 1 -1
113 7 1 -0.050311 32.4749 2.81137 16.4975 -1 1 -1
114 7 1 -0.091211 32.9155 2.88817 15.0209 -1 1 -1
115 7 3 0.033922 35.6026 2.89742 20.1415 -1 1 -1
116 7 3 0.033922 35.4503 1.8298 18.6746 -1 1 -1
117 7 3 0.033922 34.9371 19.5125 20.3062 -1 0 -1
118 7 3 0.046089 32.973 1.77966 19.1106 -1 1 -1
119 7 3 0.046089 33.0804 2.91526 20.3755 -1 1 -1
120 7 4 0.121889 33.9691 4.81796 18.8752 -1 1 -1
121 7 4 0.121889 32.963 4.98085 16.7639 -1 1 -1
122 7 3 0.046089 31.396 2.64317 16.5626 -1 1 -1
123 7 3 0.046089 32.8994 1.86711 16.8507 -1 1 -1
124 7 3 0.033922 33.9949 3.02552 14.9081 -1 1 -1
125 7 3 0.033922 32.6329 1.98394 14.474 -1 1 -1
126 7 3 0.033922 32.3407 3.65196 14.489 -1 1 -1
127 8 1 -0.091211 43.7782 6.3099 -1.24729 -1 0 1
128 8 1 -0.050311 43.1134 7.71181 -0.927704 -1 0 1
129 8 2 -0.174311 41.6329 7.7509 -1.22612 -1 0 1
130 8 2 -0.174311 40.6802 8.44118 -0.458971 -1 0 1
131 8 1 -0.050311 40.8176 9.05361 0.891451 -1 0 1
132 8 1 -0.091211 39.5593 8.76776 1.62637 -1 0 1
133 8 3 0.033922 43.4772 5.99232 21.7442 -1 0 0
134 8 3 0.033922 43.4095 5.55442 -0.547347 -1 0 1
135 8 3 0.033922 -3.92122 6.43336 -1.12998 0 0 1
136 8 3 0.046089 43.2549 8.05104 0.102629 -1 0 1
137 8 3 0.046089 43.4873 8.44095 22.3417 -1 0 0
138 8 4 0.121889 41.3326 7.2506 21.8528 -1 0 0
139 8 4 0.121889 39.7197 8.47724 -0.963137 -1 0 1
140 8 3 0.046089 40.9749 10.1313 0.789171 -1 0 1
141 8 3 0.046089 41.7069 8.65097 1.38517 -1 0 1
142 8 3 0.033922 39.5891 9.2733 2.59602 -1 0 1
143 8 3 0.033922 38.6804 9.03234 1.03121 -1 0 1
144 8 3 0.033922 39.4372 7.69187 1.78191 -1 0 1
145 9 1 -0.091211 34.1333 6.85686 21.3241 -1 1 0
146 9 1 -0.050311 35.0223 5.86983 22.1174 -1 1 0
147 9 2 -0.174311 35.8313 6.65195 -0.92678 -1 1 1
148 9 2 -0.174311 36.4266 6.13179 0.18336 -1 1 1
149 9 1 -0.050311 36.2834 4.72336 0.581084 -1 1 1
150 9 1 -0.091211 37.5283 4.25196 1.29952 -1 1 1
151 9 3 0.033922 33.6084 7.41083 22.1079 -1 1 0
152 9 3 0.033922 33.4229 6.27042 20.7341 -1 1 0
153 9 3 0.033922 34.7543 7.44328 20.6407 -1 1 0
154 9 3 0.046089 34.3381 5.13967 -1.43475 -1 1 1
155 9 3 0.046089 35.7546 5.35798 21.4861 -1 1 0
156 9 4 0.121889 36.0853 7.70373 -1.01218 -1 1 1
157 9 4 0.121889 36.9933 6.7318 0.888277 -1 1 1
158 9 3 0.046089 36.2302 4.16463 -0.357878 -1 1 1
159 9 3 0.046089 35.383 4.57134 1.18342 -1 1 1
160 9 3 0.033922 37.793 4.7442 2.23991 -1 1 1
161 9 3 0.033922 37.5298 3.19009 1.56233 -1 1 1
162 9 3 0.033922 38.2656 4.45093 0.516291 -1 1 1
163 10 1 -0.091211 4.3656 8.41759 6.91654 0 0 1
164 10 1 -0.050311 5.71306 8.51843 6.3408 0 0 1
165 10 2 -0.174311 5.90109 8.03166 4.99389 0 0 1
166 10 2 -0.174311 6.63876 6.87024 4.71197 0 0 1
167 10 1 -0.050311 7.24483 5.91931 5.78274 0 0 1
168 10 1 -0.091211 8.23618 4.85398 5.22916 0 0 1
169 10 3 0.033922 3.62258 8.64432 6.14636 0 0 1
170 10 3 0.033922 4.22687 9.10097 7.75941 0 0 1
171 10 3 0.033922 4.12981 7.38257 7.18072 0 0 1
172 10 3 0.046089 5.88265 9.59911 6.34538 0 0 1
173 10 3 0.046089 6.35411 8.04552 7.09051 0 0 1
174 10 4 0.121889 5.50923 8.63228 4.17918 0 0 1
175 10 4 0.121889 6.76809 6.51588 3.69424 0 0 1
176 10 3 0.046089 6.46356 5.41326 6.35734 0 0 1
177 10 3 0.046089 7.77432 6.56221 6.49194 0 0 1
178 10 3 0.033922 7.79275 4.18089 4.48958 0 0 1
179 10 3 0.033922 8.97855 5.44284 4.68254 0 0 1
180 10 3 0.033922 8.6907 4.29608 6.05307 0 0 1
181 11 1 -0.091211 -2.22365 14.3855 14.9184 0 0 0
182 11 1 -0.050311 -1.76108 13.882 16.2478 0 0 0
183 11 2 -0.174311 -2.82205 14.2146 17.1863 0 0 0
184 11 2 -0.174311 -2.62886 14.7208 18.4961 0 0 0
185 11 1 -0.050311 -1.32483 14.9588 19.1625 0 0 0
186 11 1 -0.091211 -1.25486 16.3433 19.6983 0 0 0
187 11 3 0.033922 -3.12147 13.8239 14.6442 0 0 0
188 11 3 0.033922 -1.487 14.2962 14.1147 0 0 0
189 11 3 0.033922 -2.59755 15.4135 14.9184 0 0 0
190 11 3 0.046089 -1.58615 12.8121 16.1017 0 0 0
191 11 3 0.046089 -0.858154 14.4463 16.4985 0 0 0
192 11 4 0.121889 -3.79271 13.8354 16.8828 0 0 0
193 11 4 0.121889 -3.44729 14.8164 19.2026 0 0 0
194 11 3 0.046089 -0.495698 14.6384 18.525 0 0 0
195 11 3 0.046089 -1.23268 14.2657 20.0039 0 0 0
196 11 3 0.033922 -2.03641 16.513 20.4447 0 0 0
197 11 3 0.033922 -0.238723 16.3942 20.1002 0 0 0
198 11 3 0.033922 -1.43408 17.0651 18.8961 0 0 0
199 12 1 -0.091211 1.31731 8.77843 11.7992 0 0 0
200 12 1 -0.050311 0.159542 7.96947 11.2459 0 0 0
201 12 2 -0.174311 0.675197 6.57853 10.8538 0 0 0
202 12 2 -0.174311 0.822284 6.13002 9.57771 0 0 0
203 12 1 -0.050311 0.28148 6.88257 8.36822 0 0 0
204 12 1 -0.091211 0.490283 6.0672 7.01877 0 0 0
205 12 3 0.033922 1.10203 9.85021 11.7592 0 0 0
206 12 3 0.033922 2.17507 8.62816 11.1372 0 0 0
207 12 3 0.033922 1.52218 8.47366 12.8297 0 0 0
208 12 3 0.046089 -0.782217 7.83642 11.7863 0 0 0
209 12 3 0.046089 -0.163842 8.3564 10.2751 0 0 0
210 12 4 0.121889 1.09951 5.96917 11.6454 0 0 0
211 12 4 0.121889 1.30468 5.1846 9.35076 0 0 0
212 12 3 0.046089 0.747091 7.86962 8.29358 0 0 0
213 12 3 0.046089 -0.801598 7.01435 8.44696 0 0 0
214 12 3 0.033922 1.54173 5.797 6.8843 0 0 0
215 12 3 0.033922 -0.088911 5.13921 7.02013 0 0 0
216 12 3 0.033922 0.290912 6.63859 6.10749 0 0 0
217 13 1 -0.091211 -3.74074 13.7851 7.09188 0 0 1
218 13 1 -0.050311 -2.46775 14.3616 7.89369 0 0 1
219 13 2 -0.174311 -2.40297 13.8246 9.3146 0 0 1
220 13 2 -0.174311 -1.34387 13.6643 10.2303 0 0 1
221 13 1 -0.050311 0.0227296 14.1603 9.84854 0 0 1
222 13 1 -0.091211 1.01595 13.5061 10.8393 0 0 1
223 13 3 0.033922 -3.53461 12.7149 6.9978 0 0 1
224 13 3 0.033922 -3.89148 14.2262 6.10226 0 0 1
225 13 3 0.033922 -4.63364 14.0504 7.66544 0 0 1
226 13 3 0.046089 -1.52313 14.0705 7.42508 0 0 1
227 13 3 0.046089 -2.43789 15.4524 7.97055 0 0 1
228 13 4 0.121889 -3.3062 13.3764 9.71621 0 0 1
229 13 4 0.121889 -1.47739 13.306 11.2462 0 0 1
230 13 3 0.046089 0.183161 15.2387 9.93788 0 0 1
231 13 3 0.046089 0.235578 13.8206 8.83073 0 0 1
232 13 3 0.033922 0.822327 12.4297 10.8127 0 0 1
233 13 3 0.033922 2.01999 13.7523 10.4817 0 0 1
234 13 3 0.033922 0.900937 13.8589 11.8683 0 0 1
235 14 1 -0.091211 15.293 9.73893 7.7814 0 0 0
236 14 1 -0.050311 15.524 9.60409 6.29132 0 0 0
237 14 2 -0.174311 14.3052 9.1012 5.61081 0 0 0
238 14 2 -0.174311 14.0023 9.28158 4.30362 0 0 0
239 14 1 -0.050311 14.723 10.1784 3.34552 0 0 0
240 14 1 -0.091211 13.7363 10.6888 2.37853 0 0 0
241 14 3 0.033922 14.9644 8.80181 8.24016 0 0 0
242 14 3 0.033922 14.5916 10.573 7.87601 0 0 0
243 14 3 0.033922 16.2232 9.96952 8.30876 0 0 0
244 14 3 0.046089 15.9255 10.5405 5.89307 0 0 0
245 14 3 0.046089 16.278 8.82906 6.12558 0 0 0
246 14 4 0.121889 13.7103 8.36105 6.1364 0 0 0
247 14 4 0.121889 13.0874 8.8231 3.94205 0 0 0
248 14 3 0.046089 15.5326 9.70025 2.78642 0 0 0
249 14 3 0.046089 15.1266 11.0036 3.9394 0 0 0
250 14 3 0.033922 14.2197 11.4451 1.75329 0 0 0
251 14 3 0.033922 13.3868 9.90135 1.70439 0 0 0
252 14 3 0.033922 12.9214 11.1828 2.91575 0 0 0
253 15 1 -0.091211 2.44018 7.91879 22.3391 0 1 0
254 15 1 -0.050311 2.54373 6.42596 22.5375 0 1 0
255 15 2 -0.174311 1.62805 5.91905 -0.370622 0 1 1
256 15 2 -0.174311 1.71516 4.63496 0.152588 0 1 1
257 15 1 -0.050311 2.61039 3.59394 -0.529008 0 1 1
258 15 1 -0.091211 2.38204 2.18105 0.178249 0 1 1
259 15 3 0.033922 1.41614 8.1328 22.0194 0 1 0
260 15 3 0.033922 3.1428 8.18395 21.5437 0 1 0
261 15 3 0.033922 2.64515 8.49997 -0.751244 0 1 1
262 15 3 0.046089 2.37874 5.90296 21.5909 0 1 0
263 15 3 0.046089 3.56362 6.09311 -1.24299 0 1 1
264 15 4 0.121889 0.942578 6.61651 0.100238 0 1 1
265 15 4 0.121889 1.25745 4.4133 1.11145 0 1 1
266 15 3 0.046089 3.67209 3.84956 -0.592745 0 1 1
267 15 3 0.046089 2.28713 3.41517 22.4354 0 1 0
268 15 3 0.033922 2.59832 2.29614 1.24439 0 1 1
269 15 3 0.033922 1.31132 1.97251 0.0964282 0 1 1
270 15 3 0.033922 2.9349 19.6402 -0.327705 0 0 1
271 16 1 -0.091211 11.1818 3.98659 8.93223 0 1 0
272 16 1 -0.050311 12.4171 3.75537 7.99935 0 1 0
273 16 2 -0.174311 13.119 5.04861 7.77941 0 1 0
274 16 2 -0.174311 14.2363 5.11221 6.88254 0 1 0
275 16 1 -0.050311 14.5821 4.0291 5.87829 0 1 0
276 16 1 -0.091211 14.2758 4.40824 4.37063 0 1 0
277 16 3 0.033922 10.4939 4.60659 8.34997 0 1 0
278 16 3 0.033922 11.492 4.5079 9.84258 0 1 0
279 16 3 0.033922 10.6548 3.0832 9.25275 0 1 0
280 16 3 0.046089 13.1138 3.02485 8.42074 0 1 0
281 16 3 0.046089 12.0601 3.35476 7.04609 0 1 0
282 16 4 0.121889 12.9146 5.95049 8.34762 0 1 0
283 16 4 0.121889 14.8803 5.98541 6.85467 0 1 0
284 16 3 0.046089 14.1604 3.06724 6.18432 0 1 0
285 16 3 0.046089 15.6522 3.8645 6.03462 0 1 0
286 16 3 0.033922 14.6451 5.40866 4.12692 0 1 0
287 16 3 0.033922 14.6106 3.61633 3.69427 0 1 0
288 16 3 0.033922 13.1916 4.4474 4.23078 0 1 0
289 17 1 -0.091211 9.88856 8.90717 7.9118 0 0 0
290 17 1 -0.050311 10.0402 9.99801 9.0251 0 0 0
291 17 2 -0.174311 11.1705 9.58547 9.9522 0 0 0
292 17 2 -0.174311 11.1465 9.69173 11.3147 0 0 0
293 17 1 -0.050311 9.91716 10.1899 11.9849 0 0 0
294 17 1 -0.091211 10.036 10.296 13.524 0 0 0
295 17 3 0.033922 9.2324 9.21194 7.0913 0 0 0
296 17 3 0.033922 9.46797 8.01369 8.38238 0 0 0
297 17 3 0.033922 10.8201 8.6628 7.393 0 0 0
298 17 3 0.046089 10.31 10.9226 8.50649 0 0 0
299 17 3 0.046089 9.11467 10.1379 9.59121 0 0 0
300 17 4 0.121889 11.9925 9.07831 9.45711 0 0 0
301 17 4 0.121889 11.9679 9.31878 11.9183 0 0 0
302 17 3 0.046089 9.04283 9.5808 11.7377 0 0 0
303 17 3 0.046089 9.7045 11.2247 11.7006 0 0 0
304 17 3 0.033922 10.2431 9.39347 14.1064 0 0 0
305 17 3 0.033922 10.8719 10.9621 13.7569 0 0 0
306 17 3 0.033922 9.13897 10.7717 13.9311 0 0 0
307 18 1 -0.091211 32.4263 9.33663 16.0619 -1 0 1
308 18 1 -0.050311 32.5927 9.25511 14.5195 -1 0 1
309 18 2 -0.174311 32.3213 7.89276 14.0093 -1 0 1
310 18 2 -0.174311 33.2915 6.93979 13.8414 -1 0 1
311 18 1 -0.050311 34.7197 7.24394 14.0613 -1 0 1
312 18 1 -0.091211 35.6697 6.09423 13.7867 -1 0 1
313 18 3 0.033922 32.8407 10.3191 16.3062 -1 0 1
314 18 3 0.033922 33.0252 8.54624 16.5238 -1 0 1
315 18 3 0.033922 31.402 9.1951 16.4188 -1 0 1
316 18 3 0.046089 31.8993 9.93311 14.0134 -1 0 1
317 18 3 0.046089 33.5852 9.63884 14.2658 -1 0 1
318 18 4 0.121889 31.2604 7.74778 13.8321 -1 0 1
319 18 4 0.121889 33.0616 5.89645 13.6499 -1 0 1
320 18 3 0.046089 34.8578 7.5395 15.1054 -1 0 1
321 18 3 0.046089 34.9172 8.09705 13.4056 -1 0 1
322 18 3 0.033922 35.316 5.20834 14.3221 -1 0 1
323 18 3 0.033922 35.7062 5.81972 12.7284 -1 0 1
324 18 3 0.033922 36.6524 6.45398 14.1055 -1 0 1
325 19 1 -0.091211 10.1708 8.99791 3.96337 0 0 0
326 19 1 -0.050311 8.82506 9.57611 3.63 0 0 0
327 19 2 -0.174311 8.17308 8.90091 2.4363 0 0 0
328 19 2 -0.174311 7.09825 9.41733 1.73431 0 0 0
329 19 1 -0.050311 6.50203 10.7027 2.0243 0 0 0
330 19 1 -0.091211 7.24213 11.7974 1.2013 0 0 0
331 19 3 0.033922 10.5354 9.65757 4.7562 0 0 0
332 19 3 0.033922 10.8097 8.95998 3.07624 0 0 0
333 19 3 0.033922 10.0327 7.96544 4.29739 0 0 0
334 19 3 0.046089 8.28613 9.39029 4.56364 0 0 0
335 19 3 0.046089 8.76335 10.661 3.50395 0 0 0
336 19 4 0.121889 8.57139 7.94299 2.11728 0 0 0
337 19 4 0.121889 6.68442 8.82016 0.927975 0 0 0
338 19 3 0.046089 6.49307 10.9788 3.08279 0 0 0
339 19 3 0.046089 5.46235 10.7503 1.68752 0 0 0
340 19 3 0.033922 6.81447 11.8882 0.198543 0 0 0
341 19 3 0.033922 7.18821 12.7773 1.68452 0 0 0
342 19 3 0.033922 8.30512 11.5647 1.08939 0 0 0
343 20 1 -0.091211 10.5998 17.2253 8.82113 0 -1 0
344 20 1 -0.050311 10.9668 18.0259 7.59844 0 -1 0
345 20 2 -0.174311 11.8606 17.2216 6.67583 0 -1 0
346 20 2 -0.174311 12.0559 17.6113 5.44832 0 -1 0
347 20 1 -0.050311 11.661 18.9577 4.76234 0 -1 0
348 20 1 -0.091211 10.9219 18.7059 3.40112 0 -1 0
349 20 3 0.033922 11.5698 17.0287 9.28717 0 -1 0
350 20 3 0.033922 10.0589 16.3002 8.60157 0 -1 0
351 20 3 0.033922 9.98676 17.8624 9.4652 0 -1 0
352 20 3 0.046089 10.0419 18.2536 7.06062 0 -1 0
353 20 3 0.046089 11.3757 18.9839 7.93242 0 -1 0
354 20 4 0.121889 12.3549 16.3779 7.1469 0 -1 0
355 20 4 0.121889 12.6753 16.9367 4.86595 0 -1 0
356 20 3 0.046089 12.5958 19.5154 4.65413 0 -1 0
357 20 3 0.046089 11.026 19.585 5.39476 0 -1 0
358 20 3 0.033922 11.6227 18.1824 2.74421 0 -1 0
359 20 3 0.033922 10.0685 18.0326 3.52328 0 -1 0
360 20 3 0.033922 10.6504 19.6232 2.87063 0 -1 0
361 21 1 -0.091211 -2.97082 18.9533 21.1843 0 -1 0
362 21 1 -0.050311 -2.96435 1.83411 22.2202 0 0 0
363 21 2 -0.174311 -1.80269 19.9538 -0.804549 0 -1 1
364 21 2 -0.174311 -1.79027 19.2249 0.354275 0 -1 1
365 21 1 -0.050311 -2.88769 18.3477 0.913003 0 -1 1
366 21 1 -0.091211 -2.91597 18.4416 2.37454 0 -1 1
367 21 3 0.033922 -2.00877 18.7807 20.6931 0 -1 0
368 21 3 0.033922 -3.79567 19.0518 20.4726 0 -1 0
369 21 3 0.033922 -3.13128 18.0187 21.7297 0 -1 0
370 21 3 0.046089 -3.00412 2.83001 21.7693 0 0 0
371 21 3 0.046089 -3.87037 1.67733 -1.18134 0 0 1
372 21 4 0.121889 -0.896853 2.26318 -0.998883 0 0 1
373 21 4 0.121889 -0.799568 19.2254 0.797595 0 -1 1
374 21 3 0.046089 -2.89922 17.299 0.602009 0 -1 1
375 21 3 0.046089 -3.91698 18.6702 0.730872 0 -1 1
376 21 3 0.033922 -2.80681 19.4701 2.73089 0 -1 1
377 21 3 0.033922 -3.91283 18.0911 2.65753 0 -1 1
378 21 3 0.033922 -2.13533 17.7812 2.76325 0 -1 1
379 22 1 -0.091211 2.15273 14.52 16.0492 0 -1 0
380 22 1 -0.050311 3.46756 13.9412 15.6791 0 -1 0
381 22 2 -0.174311 4.26731 14.9253 14.7666 0 -1 0
382 22 2 -0.174311 5.62244 14.954 14.7059 0 -1 0
383 22 1 -0.050311 6.41828 13.9965 15.542 0 -1 0
384 22 1 -0.091211 6.90058 14.8265 16.7399 0 -1 0
385 22 3 0.033922 1.51968 13.7289 16.4616 0 -1 0
386 22 3 0.033922 1.70316 14.8683 15.1147 0 -1 0
387 22 3 0.033922 2.32399 15.2682 16.8286 0 -1 0
388 22 3 0.046089 4.027 13.8205 16.6114 0 -1 0
389 22 3 0.046089 3.22501 13.0226 15.1369 0 -1 0
390 22 4 0.121889 3.74091 15.616 14.1156 0 -1 0
391 22 4 0.121889 6.06247 15.7413 14.1022 0 -1 0
392 22 3 0.046089 7.29524 13.6709 14.9749 0 -1 0
393 22 3 0.046089 5.8854 13.0569 15.7151 0 -1 0
394 22 3 0.033922 7.20945 15.843 16.4795 0 -1 0
395 22 3 0.033922 6.09619 15.0125 17.4575 0 -1 0
396 22 3 0.033922 7.67882 14.3303 17.3271 0 -1 0
397 23 1 -0.091211 -0.671312 9.1834 0.69784 0 0 0
398 23 1 -0.050311 -1.63102 9.78519 1.77529 0 0 0
399 23 2 -0.174311 -2.53462 8.69222 2.32869 0 0 0
400 23 2 -0.174311 -3.24093 8.72952 3.54306 0 0 0
401 23 1 -0.050311 -3.2431 9.80161 4.60031 0 0 0
402 23 1 -0.091211 -2.33341 9.3529 5.67207 0 0 0
403 23 3 0.033922 -0.017757 10.023 0.443815 0 0 0
404 23 3 0.033922 -1.17096 8.75123 -0.174082 0 0 0
405 23 3 0.033922 -0.0515834 8.42404 1.1836 0 0 0
406 23 3 0.046089 -0.931941 10.2135 2.49948 0 0 0
407 23 3 0.046089 -2.30202 10.5182 1.31795 0 0 0
408 23 4 0.121889 -2.66601 7.79168 1.73724 0 0 0
409 23 4 0.121889 -3.87095 7.87257 3.75923 0 0 0
410 23 3 0.046089 -4.25132 9.98612 4.9825 0 0 0
411 23 3 0.046089 -2.87854 10.7783 4.26904 0 0 0
412 23 3 0.033922 -1.32917 9.05986 5.3523 0 0 0
413 23 3 0.033922 -2.19712 10.1914 6.36124 0 0 0
414 23 3 0.033922 -2.82143 8.50027 6.15323 0 0 0
415 24 1 -0.091211 -1.31217 13.647 4.50168 0 0 0
416 24 1 -0.050311 0.109226 13.1694 4.25232 0 0 0
417 24 2 -0.174311 0.848948 13.0438 5.58255 0 0 0
418 24 2 -0.174311 2.25252 12.9323 5.66765 0 0 0
419 24 1 -0.050311 3.17328 12.7512 4.44633 0 0 0
420 24 1 -0.091211 3.82862 14.1814 4.24082 0 0 0
421 24 3 0.033922 -1.85809 12.9369 5.12962 0 0 0
422 24 3 0.033922 -1.80043 13.5829 3.52487 0 0 0
423 24 3 0.033922 -1.32427 14.7001 4.79778 0 0 0
424 24 3 0.046089 0.0245579 12.1622 3.83392 0 0 0
425 24 3 0.046089 0.63079 13.8519 3.57502 0 0 0
426 24 4 0.121889 0.296763 13.0952 6.51556 0 0 0
427 24 4 0.121889 2.7731 13.033 6.61469 0 0 0
428 24 3 0.046089 2.6081 12.5158 3.53978 0 0 0
429 24 3 0.046089 3.89082 11.9398 4.59923 0 0 0
430 24 3 0.033922 3.11171 14.9991 4.1228 0 0 0
431 24 3 0.033922 4.40298 14.3252 5.16065 0 0 0
432 24 3 0.033922 4.48061 13.9741 3.38725 0 0 0
433 25 1 -0.091211 0.988816 7.83596 17.4869 0 0 0
434 25 1 -0.050311 0.964063 6.41783 17.9118 0 0 0
435 25 2 -0.174311 0.431181 6.4276 19.259 0 0 0
436 25 2 -0.174311 0.219163 5.17716 19.8861 0 0 0
437 25 1 -0.050311 0.701444 3.83886 19.3896 0 0 0
438 25 1 -0.091211 0.276268 2.71662 20.2782 0 0 0
439 25 3 0.033922 -0.0472689 8.18571 17.5157 0 0 0
440 25 3 0.033922 1.31408 7.87703 16.4432 0 0 0
441 25 3 0.033922 1.68944 8.437 18.0738 0 0 0
442 25 3 0.046089 0.29346 5.8381 17.2708 0 0 0
443 25 3 0.046089 1.98765 6.03893 17.9848 0 0 0
444 25 4 0.121889 0.06657 7.35419 19.6908 0 0 0
445 25 4 0.121889 -0.244397 5.28954 20.8611 0 0 0
446 25 3 0.046089 1.76778 3.81494 19.1468 0 0 0
447 25 3 0.046089 0.200381 3.77823 18.4191 0 0 0
448 25 3 0.033922 -0.816194 2.67927 20.2363 0 0 0
449 25 3 0.033922 0.778225 1.76917 20.0613 0 0 0
450 25 3 0.033922 0.600363 2.94067 21.2987 0 0 0
451 26 1 -0.091211 -1.58311 14.702 -0.737143 0 -1 1
452 26 1 -0.050311 -2.09618 13.3247 -0.428913 0 -1 1
453 26 2 -0.174311 -3.11438 13.4015 0.69479 0 -1 1
454 26 2 -0.174311 -4.14572 12.5189 0.86437 0 -1 1
455 26 1 -0.050311 -4.52384 11.3761 -0.0338037 0 -1 1
456 26 1 -0.091211 43.0083 11.5883 -0.910637 -1 -1 1
457 26 3 0.033922 -2.40865 15.4024 -0.893737 0 -1 1
458 26 3 0.033922 -0.896591 14.6854 22.4055 0 -1 0
459 26 3 0.033922 -1.08863 15.1054 0.151332 0 -1 1
460 26 3 0.046089 -2.47131 12.9122 -1.37009 0 -1 1
461 26 3 0.046089 -1.26542 12.7193 -0.0547844 0 -1 1
462 26 4 0.121889 -2.98318 14.1703 1.44972 0 -1 1
463 26 4 0.121889 -4.83232 12.747 1.67346 0 -1 1
464 26 3 0.046089 -4.65666 10.4674 0.560453 0 -1 1
465 26 3 0.046089 -3.706 11.0583 -0.687103 0 -1 1
466 26 3 0.033922 42.8462 10.6811 22.4941 -1 -1 0
467 26 3 0.033922 42.2175 11.5955 -0.154816 -1 -1 1
468 26 3 0.033922 43.0969 12.4862 22.4649 -1 -1 0
469 27 1 -0.091211 14.66 13.1725 21.5187 0 0 -1
470 27 1 -0.050311 15.3764 14.0909 20.4697 0 0 -1
471 27 2 -0.174311 15.4087 15.5221 21.0496 0 0 -1
472 27 2 -0.174311 16.4859 16.1942 21.712 0 0 -1
473 27 1 -0.050311 17.7485 15.4812 22.0771 0 0 -1
474 27 1 -0.091211 18.8952 15.8868 21.1523 0 0 -1
475 27 3 0.033922 14.7403 12.1366 21.1762 0 0 -1
476 27 3 0.033922 13.6117 13.4737 21.6027 0 0 -1
477 27 3 0.033922 15.1976 13.2181 22.4703 0 0 -1
478 27 3 0.046089 16.372 13.6867 20.2649 0 0 -1
479 27 3 0.046089 14.8433 14.0488 19.5153 0 0 -1
480 27 4 0.121889 14.4576 16.0423 20.9966 0 0 -1
481 27 4 0.121889 16.441 17.2 22.1173 0 0 -1
482 27 3 0.046089 17.6155 14.3962 22.0373 0 0 -1
483 27 3 0.046089 18.0001 15.6227 -0.861865 0 0 0
484 27 3 0.033922 19.35 16.8308 21.4666 0 0 -1
485 27 3 0.033922 19.7603 15.2183 21.1899 0 0 -1
486 27 3 0.033922 18.6306 16.0339 20.1011 0 0 -1
487 28 1 -0.091211 5.39968 16.8734 -0.458322 0 -1 0
488 28 1 -0.050311 6.60559 15.8997 -0.533616 0 -1 0
489 28 2 -0.174311 7.23478 16.0674 22.1247 0 -1 -1
490 28 2 -0.174311 8.36508 16.7864 21.83 0 -1 -1
491 28 1 -0.050311 9.24388 17.5444 -1.12742 0 -1 0
492 28 1 -0.091211 10.1177 18.6844 22.2417 0 -1 -1
493 28 3 0.033922 4.9819 16.8924 0.552505 0 -1 0
494 28 3 0.033922 4.71254 16.4048 -1.1689 0 -1 0
495 28 3 0.033922 5.62884 17.87 -0.846778 0 -1 0
496 28 3 0.046089 7.40629 16.1611 0.164404 0 -1 0
497 28 3 0.046089 6.4279 14.833 -0.368923 0 -1 0
498 28 4 0.121889 6.63064 15.7008 21.3009 0 -1 -1
499 28 4 0.121889 8.68109 16.7938 20.7917 0 -1 -1
500 28 3 0.046089 9.9776 16.8806 -0.66077 0 -1 0
501 28 3 0.046089 8.55972 17.8346 -0.324697 0 -1 0
502 28 3 0.033922 10.7473 19.0598 -0.940534 0 -1 0
503 28 3 0.033922 10.6841 18.2835 21.396 0 -1 -1
504 28 3 0.033922 9.52019 19.5006 21.8251 0 -1 -1
505 29 1 -0.091211 2.24506 9.53112 2.89947 0 0 0
506 29 1 -0.050311 2.07582 8.12639 3.30461 0 0 0
507 29 2 -0.174311 2.96581 7.19956 2.4799 0 0 0
508 29 2 -0.174311 3.41241 6.02397 2.94143 0 0 0
509 29 1 -0.050311 3.08503 5.42942 4.18225 0 0 0
510 29 1 -0.091211 3.09587 3.90236 4.01017 0 0 0
511 29 3 0.033922 2.00359 9.51652 1.83262 0 0 0
512 29 3 0.033922 3.30901 9.76406 3.00134 0 0 0
513 29 3 0.033922 1.51421 10.1772 3.39446 0 0 0
514 29 3 0.046089 2.19641 8.00822 4.38543 0 0 0
515 29 3 0.046089 1.06646 7.85183 2.98452 0 0 0
516 29 4 0.121889 3.25223 7.52923 1.48625 0 0 0
517 29 4 0.121889 3.97928 5.43496 2.22745 0 0 0
518 29 3 0.046089 2.10773 5.77149 4.5351 0 0 0
519 29 3 0.046089 3.85533 5.63609 4.93095 0 0 0
520 29 3 0.033922 2.29271 3.7054 3.29408 0 0 0
521 29 3 0.033922 4.00421 3.43547 3.61829 0 0 0
522 29 3 0.033922 2.79001 3.47635 4.97019 0 0 0
523 30 1 -0.091211 2.03547 19.5255 6.22971 0 0 1
524 30 1 -0.050311 2.74877 18.1508 5.94016 0 0 1
525 30 2 -0.174311 1.67873 17.1021 5.59389 0 0 1
526 30 2 -0.174311 0.956378 17.1199 4.4404 0 0 1
527 30 1 -0.050311 1.13717 17.9985 3.19942 0 0 1
528 30 1 -0.091211 1.53256 17.1002 2.04833 0 0 1
529 30 3 0.033922 1.4459 19.4533 7.14833 0 0 1
530 30 3 0.033922 1.39541 19.9552 5.45359 0 0 1
531 30 3 0.033922 2.82469 2.01491 6.36424 0 1 1
532 30 3 0.046089 3.40435 18.2162 5.06689 0 0 1
533 30 3 0.046089 3.40549 17.9413 6.78956 0 0 1
534 30 4 0.121889 1.39478 16.4401 6.40576 0 0 1
535 30 4 0.121889 0.156738 16.3894 4.51061 0 0 1
536 30 3 0.046089 1.82379 18.8489 3.24429 0 0 1
537 30 3 0.046089 0.161922 18.4364 2.96767 0 0 1
538 30 3 0.033922 1.41714 17.5138 1.0422 0 0 1
539 30 3 0.033922 2.59942 16.8802 2.14827 0 0 1
540 30 3 0.033922 0.994129 16.1577 2.18407 0 0 1
541 31 1 -0.091211 18.6294 19.3636 -0.0390472 0 0 1
542 31 1 -0.050311 19.4568 19.5999 -1.22435 0 0 1
543 31 2 -0.174311 20.9325 19.4541 -0.961868 0 0 1
544 31 2 -0.174311 21.8294 19.0872 22.0667 0 0 0
545 31 1 -0.050311 21.5809 18.6055 20.6021 0 0 0
546 31 1 -0.091211 22.3264 19.4813 19.5677 0 0 0
547 31 3 0.033922 17.6315 19.657 -0.377735 0 0 1
548 31 3 0.033922 18.9603 20.0704 0.727515 0 0 1
549 31 3 0.033922 18.6547 18.3289 0.314876 0 0 1
550 31 3 0.046089 19.145 18.8203 22.0686 0 0 0
551 31 3 0.046089 19.2759 2.35763 22.4007 0 1 0
552 31 4 0.121889 21.2767 19.8921 -0.030355 0 0 1
553 31 4 0.121889 22.8529 19.1455 22.4233 0 0 0
554 31 3 0.046089 20.5355 18.7451 20.3116 0 0 0
555 31 3 0.046089 21.7822 17.543 20.4373 0 0 0
556 31 3 0.033922 22.322 2.29737 19.785 0 1 0
557 31 3 0.033922 23.3853 19.2291 19.4598 0 0 0
558 31 3 0.033922 21.9219 19.2762 18.5722 0 0 0
559 32 1 -0.091211 14.1975 18.5523 0.477024 0 0 0
560 32 1 -0.050311 13.8145 19.9398 -0.0748025 0 0 0
561 32 2 -0.174311 14.6999 2.75908 0.469478 0 1 0
562 32 2 -0.174311 14.2107 4.06373 0.779369 0 1 0
563 32 1 -0.050311 12.9413 4.68892 0.324996 0 1 0
564 32 1 -0.091211 11.9199 4.85426 1.4317 0 1 0
565 32 3 0.033922 13.6695 17.7588 -0.0597612 0 0 0
566 32 3 0.033922 13.8777 18.4862 1.52106 0 0 0
567 32 3 0.033922 15.2551 18.2987 0.360002 0 0 0
568 32 3 0.046089 13.9753 1.63162 -1.1556 0 1 0
569 32 3 0.046089 12.7726 1.90815 0.171586 0 1 0
570 32 4 0.121889 15.7469 2.49004 0.565949 0 1 0
571 32 4 0.121889 14.8794 4.84207 1.13295 0 1 0
572 32 3 0.046089 12.5035 4.01344 -0.415776 0 1 0
573 32 3 0.046089 13.178 5.60588 -0.222525 0 1 0
574 32 3 0.033922 11.0968 5.45464 1.03331 0 1 0
575 32 3 0.033922 11.4479 3.93463 1.78959 0 1 0
576 32 3 0.033922 12.3812 5.45571 2.22049 0 1 0
577 33 1 -0.091211 14.9343 10.4538 12.0497 0 0 0
578 33 1 -0.050311 14.9644 10.5439 13.5208 0 0 0
579 33 2 -0.174311 16.5032 10.6699 13.8717 0 0 0
580 33 2 -0.174311 17.0568 11.3148 14.9919 0 0 0
581 33 1 -0.050311 16.2091 12.3808 15.8305 0 0 0
582 33 1 -0.091211 15.634 11.5518 16.9825 0 0 0
583 33 3 0.033922 15.2646 9.47463 11.6908 0 0 0
584 33 3 0.033922 15.5423 11.2258 11.569 0 0 0
585 33 3 0.033922 13.8723 10.6024 11.8336 0 0 0
586 33 3 0.046089 14.417 11.4143 13.8941 0 0 0
587 33 3 0.046089 14.5334 9.61069 13.8949 0 0 0
588 33 4 0.121889 17.242 10.2989 13.1685 0 0 0
589 33 4 0.121889 18.1356 11.3451 15.1066 0 0 0
590 33 3 0.046089 15.3886 12.843 15.2739 0 0 0
591 33 3 0.046089 16.8623 13.2111 16.1145 0 0 0
592 33 3 0.033922 14.9765 10.7668 16.5975 0 0 0
593 33 3 0.033922 16.3996 10.9477 17.4781 0 0 0
594 33 3 0.033922 15.066 12.1704 17.6834 0 0 0
595 34 1 -0.091211 15.0352 2.27927 10.2994 0 1 0
596 34 1 -0.050311 14.3533 19.2188 10.2628 0 0 0
597 34 2 -0.174311 13.2041 19.0685 11.2846 0 0 0
598 34 2 -0.174311 13.3802 18.5252 12.5394 0 0 0
599 34 1 -0.050311 14.6791 18.3885 13.4174 0 0 0
600 34 1 -0.091211 15.1341 16.917 13.4075 0 0 0
601 34 3 0.033922 15.9421 2.11624 10.8891 0 1 0
602 34 3 0.033922 14.3685 3.06694 10.6622 0 1 0
603 34 3 0.033922 15.272 2.36464 9.23482 0 1 0
604 34 3 0.046089 13.9489 19.0603 9.2588 0 0 0
605 34 3 0.046089 15.0868 18.4375 10.4824 0 0 0
606 34 4 0.121889 12.1739 19.3057 11.0387 0 0 0
607 34 4 0.121889 12.5444 18.427 13.2248 0 0 0
608 34 3 0.046089 14.4618 18.7054 14.4416 0 0 0
609 34 3 0.046089 15.5057 18.9774 13.0094 0 0 0
610 34 3 0.033922 14.4185 16.286 13.9428 0 0 0
611 34 3 0.033922 15.3204 16.4584 12.4319 0 0 0
612 34 3 0.033922 16.0941 16.9372 13.9316 0 0 0
613 35 1 -0.091211 37.1672 14.6826 22.5286 -1 0 0