ITEM: TIMESTEP
81200
ITEM: NUMBER OF ATOMS
1800
ITEM: BOX BOUNDS pp pp pp
-4.6413380252766316e+00 4.3449353525275541e+01
1.6906190093280831e+00 1.9918036490672332e+01
-1.0039200091672953e+00 2.2257653509166829e+01
ITEM: ATOMS id mol type q x y z ix iy iz
1 1 1 -0.091211 6.54128 9.97428 14.3072 0 -1 0
2 1 1 -0.050311 7.85484 10.1312 13.494 0 -1 0
3 1 2 -0.174311 7.84307 9.11625 12.3687 0 -1 0
4 1 2 -0.174311 7.78046 9.42255 11.0061 0 -1 0
5 1 1 -0.050311 7.56248 10.7716 10.3674 0 -1 0
6 1 1 -0.091211 6.09142 11.0968 10.4555 0 -1 0
7 1 3 0.033922 5.64396 10.0109 13.6826 0 -1 0
8 1 3 0.033922 6.56704 10.6664 15.1539 0 -1 0
9 1 3 0.033922 6.47371 8.98554 14.7702 0 -1 0
10 1 3 0.046089 7.88988 11.1789 13.1814 0 -1 0
11 1 3 0.046089 8.73056 9.91409 14.1125 0 -1 0
12 1 4 0.121889 7.88371 8.05698 12.6018 0 -1 0
13 1 4 0.121889 7.70353 8.55067 10.3643 0 -1 0
14 1 3 0.046089 7.88993 10.7182 9.32503 0 -1 0
15 1 3 0.046089 8.23096 11.4905 10.85 0 -1 0
16 1 3 0.033922 5.91542 12.0588 9.96534 0 -1 0
17 1 3 0.033922 5.44319 10.4352 9.87354 0 -1 0
18 1 3 0.033922 5.75053 11.1787 11.4916 0 -1 0
19 2 1 -0.091211 3.6635 4.52802 8.68259 0 0 0
20 2 1 -0.050311 4.54963 3.81539 9.63675 0 0 0
21 2 2 -0.174311 5.00406 4.65889 10.7874 0 0 0
22 2 2 -0.174311 6.19035 4.64979 11.4922 0 0 0
23 2 1 -0.050311 7.33676 3.65717 11.3292 0 0 0
24 2 1 -0.091211 8.62455 4.4195 11.4107 0 0 0
25 2 3 0.033922 4.18323 5.38151 8.23756 0 0 0
26 2 3 0.033922 2.78639 4.96 9.17317 0 0 0
27 2 3 0.033922 3.37399 3.86712 7.86042 0 0 0
28 2 3 0.046089 3.9332 3.031 10.0855 0 0 0
29 2 3 0.046089 5.32365 3.27813 9.08103 0 0 0
30 2 4 0.121889 4.28844 5.42506 11.0682 0 0 0
31 2 4 0.121889 6.1806 5.31597 12.349 0 0 0
32 2 3 0.046089 7.28522 3.26406 10.3097 0 0 0
33 2 3 0.046089 7.1368 2.80854 11.9898 0 0 0
34 2 3 0.033922 9.53154 3.80985 11.4588 0 0 0
35 2 3 0.033922 8.67914 5.17329 10.6198 0 0 0
36 2 3 0.033922 8.55824 4.96626 12.3558 0 0 0
37 3 1 -0.091211 1.63221 4.66272 14.7417 0 0 0
38 3 1 -0.050311 2.87496 4.09047 14.0798 0 0 0
39 3 2 -0.174311 2.32283 3.31479 12.9039 0 0 0
40 3 2 -0.174311 2.83161 2.0694 12.5163 0 0 0
41 3 1 -0.050311 4.09587 19.731 13.2 0 -1 0
42 3 1 -0.091211 4.86856 18.7994 12.2644 0 -1 0
43 3 3 0.033922 1.08997 5.26686 14.0085 0 0 0
44 3 3 0.033922 1.98506 5.24501 15.5979 0 0 0
45 3 3 0.033922 0.933026 3.90467 15.1066 0 0 0
46 3 3 0.046089 3.52826 4.89171 13.7223 0 0 0
47 3 3 0.046089 3.37415 3.4161 14.7817 0 0 0
48 3 4 0.121889 1.39177 3.65178 12.4594 0 0 0
49 3 4 0.121889 2.41857 19.7921 11.6488 0 -1 0
50 3 3 0.046089 3.75445 19.3131 14.1515 0 -1 0
51 3 3 0.046089 4.76913 2.32532 13.461 0 0 0
52 3 3 0.033922 5.89105 18.6657 12.6294 0 -1 0
53 3 3 0.033922 4.34892 17.8502 12.1043 0 -1 0
54 3 3 0.033922 4.91186 19.2893 11.2874 0 -1 0
55 4 1 -0.091211 -1.34481 18.9855 14.0164 0 -1 0
56 4 1 -0.050311 -0.437019 18.4147 15.1066 0 -1 0
57 4 2 -0.174311 -0.356349 19.522 16.2134 0 -1 0
58 4 2 -0.174311 0.57897 19.5974 17.1177 0 -1 0
59 4 1 -0.050311 1.86792 18.837 17.1364 0 -1 0
60 4 1 -0.091211 2.9143 19.6945 17.8676 0 -1 0
61 4 3 0.033922 -2.28901 19.2073 14.5222 0 -1 0
62 4 3 0.033922 -1.5533 18.251 13.233 0 -1 0
63 4 3 0.033922 -0.944463 19.9038 13.5771 0 -1 0
64 4 3 0.046089 -0.740883 17.4454 15.5125 0 -1 0
65 4 3 0.046089 0.525178 18.3006 14.5989 0 -1 0
66 4 4 0.121889 -1.24148 1.90142 16.3757 0 0 0
67 4 4 0.121889 0.457908 2.20516 17.8002 0 0 0
68 4 3 0.046089 2.24407 18.7075 16.1174 0 -1 0
69 4 3 0.046089 1.75129 17.9027 17.6933 0 -1 0
70 4 3 0.033922 2.64436 19.8427 18.9172 0 -1 0
71 4 3 0.033922 3.88454 19.1895 17.8557 0 -1 0
72 4 3 0.033922 3.05154 2.44441 17.3957 0 0 0
73 5 1 -0.091211 -2.93953 8.36746 8.89167 0 0 0
74 5 1 -0.050311 -4.37641 8.72662 8.51957 0 0 0
75 5 2 -0.174311 42.7042 8.69537 9.65523 -1 0 0
76 5 2 -0.174311 41.4582 9.31943 9.55563 -1 0 0
77 5 1 -0.050311 41.0347 10.1409 8.37405 -1 0 0
78 5 1 -0.091211 40.1734 9.25463 7.48266 -1 0 0
79 5 3 0.033922 -2.36476 9.15566 9.38663 0 0 0
80 5 3 0.033922 -2.31512 7.97207 8.08523 0 0 0
81 5 3 0.033922 -2.94798 7.51699 9.57958 0 0 0
82 5 3 0.046089 -4.34183 9.74582 8.12379 0 0 0
83 5 3 0.046089 43.3515 8.03189 7.75647 -1 0 0
84 5 4 0.121889 42.8587 8.0224 10.4926 -1 0 0
85 5 4 0.121889 40.7443 9.12044 10.3485 -1 0 0
86 5 3 0.046089 41.8693 10.468 7.74713 -1 0 0
87 5 3 0.046089 40.5459 11.0584 8.71442 -1 0 0
88 5 3 0.033922 39.271 9.05721 8.06867 -1 0 0
89 5 3 0.033922 39.8501 9.85401 6.62662 -1 0 0
90 5 3 0.033922 40.6711 8.33839 7.15193 -1 0 0
91 6 1 -0.091211 7.53293 5.11382 1.08266 0 0 1
92 6 1 -0.050311 7.27125 3.73572 0.495505 0 0 1
93 6 2 -0.174311 5.78638 3.44213 0.362801 0 0 1
94 6 2 -0.174311 5.15304 3.08845 -0.842179 0 0 1
95 6 1 -0.050311 5.79072 3.00919 21.0523 0 0 0
96 6 1 -0.091211 5.29835 4.19682 20.1746 0 0 0
97 6 3 0.033922 8.58059 5.36075 1.27767 0 0 1
98 6 3 0.033922 7.05394 5.23324 2.0588 0 0 1
99 6 3 0.033922 7.09657 5.81333 0.363729 0 0 1
100 6 3 0.046089 7.84817 3.63756 -0.428662 0 0 1
101 6 3 0.046089 7.63806 2.97775 1.19372 0 0 1
102 6 4 0.121889 5.30429 3.47485 1.33463 0 0 1
103 6 4 0.121889 4.08171 2.99519 -0.695381 0 0 1
104 6 3 0.046089 5.64565 2.02814 20.5907 0 0 0
105 6 3 0.046089 6.86024 3.15064 21.2333 0 0 0
106 6 3 0.033922 5.86826 4.12031 19.2441 0 0 0
107 6 3 0.033922 4.23769 4.18857 19.9072 0 0 0
108 6 3 0.033922 5.47839 5.19591 20.5821 0 0 0
109 7 1 -0.091211 32.787 3.36514 19.2601 -1 1 -1
110 7 1 -0.050311 31.5889 4.08419 18.8307 -1 1 -1
111 7 2 -0.174311 31.756 5.00096 17.6415 -1 1 -1
112 7 2 -0.174311 31.6914 4.62686 16.3312 -1 1 -1
113 7 1 -0.050311 31.4291 3.20781 15.8352 -1 1 -1
114 7 1 -0.091211 30.4625 3.11927 14.6697 -1 1 -1
115 7 3 0.033922 33.5959 4.07066 19.4711 -1 1 -1
116 7 3 0.033922 33.2261 2.73602 18.4803 -1 1 -1
117 7 3 0.033922 32.5929 2.70117 20.1074 -1 1 -1
118 7 3 0.046089 30.8413 3.34414 18.5309 -1 1 -1
119 7 3 0.046089 31.3459 4.69233 19.7069 -1 1 -1
120 7 4 0.121889 32.023 6.03755 17.8209 -1 1 -1
121 7 4 0.121889 32.0324 5.32079 15.5696 -1 1 -1
122 7 3 0.046089 30.9049 2.59892 16.5775 -1 1 -1
123 7 3 0.046089 32.3726 2.67731 15.6771 -1 1 -1
124 7 3 0.033922 30.7612 3.78297 13.8531 -1 1 -1
125 7 3 0.033922 30.449 2.13967 14.183 -1 1 -1
126 7 3 0.033922 29.4449 3.43222 14.9209 -1 1 -1
127 8 1 -0.091211 -2.58583 6.20632 22.1815 0 0 0
128 8 1 -0.050311 -3.69162 6.77609 -0.15431 0 0 1
129 8 2 -0.174311 43.2716 5.76066 -0.116698 -1 0 1
130 8 2 -0.174311 42.0684 6.08664 0.407601 -1 0 1
131 8 1 -0.050311 41.8242 7.37561 1.15549 -1 0 1
132 8 1 -0.091211 40.3057 7.45873 1.21807 -1 0 1
133 8 3 0.033922 -2.91012 6.19885 21.1369 0 0 0
134 8 3 0.033922 -2.26325 5.19328 22.439 0 0 0
135 8 3 0.033922 -1.6886 6.82489 22.2762 0 0 0
136 8 3 0.046089 -3.33401 6.92072 0.869285 0 0 1
137 8 3 0.046089 -4.09413 7.69597 -0.588385 0 0 1
138 8 4 0.121889 43.2646 4.84523 -0.699738 -1 0 1
139 8 4 0.121889 41.165 5.48565 0.379569 -1 0 1
140 8 3 0.046089 42.2087 8.25904 0.637461 -1 0 1
141 8 3 0.046089 42.323 7.28016 2.12432 -1 0 1
142 8 3 0.033922 40.0595 8.45883 1.58659 -1 0 1
143 8 3 0.033922 39.8456 7.37997 0.228786 -1 0 1
144 8 3 0.033922 39.9252 6.71217 1.92121 -1 0 1
145 9 1 -0.091211 33.1017 7.2899 20.9367 -1 1 0
146 9 1 -0.050311 33.6516 6.89506 22.2896 -1 1 0
147 9 2 -0.174311 34.3363 8.03027 -0.271865 -1 1 1
148 9 2 -0.174311 35.0561 7.79359 0.841535 -1 1 1
149 9 1 -0.050311 35.2643 6.48355 1.54457 -1 1 1
150 9 1 -0.091211 36.7133 6.25203 1.80395 -1 1 1
151 9 3 0.033922 32.2628 7.98196 21.0548 -1 1 0
152 9 3 0.033922 32.6655 6.40799 20.4586 -1 1 0
153 9 3 0.033922 33.8142 7.82808 20.3049 -1 1 0
154 9 3 0.046089 32.8882 6.48586 -0.303875 -1 1 1
155 9 3 0.046089 34.395 6.12061 22.0793 -1 1 0
156 9 4 0.121889 34.1916 9.03331 -0.660385 -1 1 1
157 9 4 0.121889 35.6124 8.56865 1.35895 -1 1 1
158 9 3 0.046089 34.7779 5.68498 0.976907 -1 1 1
159 9 3 0.046089 34.8122 6.45153 2.54012 -1 1 1
160 9 3 0.033922 37.116 7.18152 2.2169 -1 1 1
161 9 3 0.033922 36.7712 5.44839 2.54382 -1 1 1
162 9 3 0.033922 37.2791 5.96117 0.914081 -1 1 1
163 10 1 -0.091211 5.59743 7.55479 8.24132 0 0 1
164 10 1 -0.050311 6.7612 6.78644 7.76005 0 0 1
165 10 2 -0.174311 7.07558 7.00012 6.33484 0 0 1
166 10 2 -0.174311 7.71873 6.19215 5.43192 0 0 1
167 10 1 -0.050311 8.32404 4.82086 5.73154 0 0 1
168 10 1 -0.091211 9.25487 4.5589 4.56315 0 0 1
169 10 3 0.033922 5.7826 8.63223 8.27934 0 0 1
170 10 3 0.033922 5.3331 7.27997 9.26658 0 0 1
171 10 3 0.033922 4.70912 7.40288 7.62131 0 0 1
172 10 3 0.046089 7.67541 7.1182 8.2608 0 0 1
173 10 3 0.046089 6.63388 5.71087 7.91351 0 0 1
174 10 4 0.121889 6.8145 7.96893 5.92103 0 0 1
175 10 4 0.121889 7.92464 6.68026 4.48466 0 0 1
176 10 3 0.046089 7.52379 4.08827 5.87129 0 0 1
177 10 3 0.046089 8.89888 4.91904 6.65699 0 0 1
178 10 3 0.033922 8.75327 4.30984 3.62351 0 0 1
179 10 3 0.033922 9.91289 5.41106 4.36963 0 0 1
180 10 3 0.033922 9.87603 3.67162 4.71646 0 0 1
181 11 1 -0.091211 -0.503781 14.2061 17.7469 0 0 0
182 11 1 -0.050311 -0.00798069 15.6519 17.9915 0 0 0
183 11 2 -0.174311 -0.970209 16.4761 18.7618 0 0 0
184 11 2 -0.174311 -0.601594 17.0175 19.9525 0 0 0
185 11 1 -0.050311 0.786384 16.8724 20.5635 0 0 0
186 11 1 -0.091211 0.962878 17.7089 21.827 0 0 0
187 11 3 0.033922 -0.996927 13.9371 18.6855 0 0 0
188 11 3 0.033922 0.299427 13.4694 17.6529 0 0 0
189 11 3 0.033922 -1.17959 14.1738 16.8874 0 0 0
190 11 3 0.046089 0.928069 15.5521 18.5487 0 0 0
191 11 3 0.046089 0.201845 16.0462 16.993 0 0 0
192 11 4 0.121889 -1.9738 16.5299 18.3521 0 0 0
193 11 4 0.121889 -1.45059 17.3921 20.5154 0 0 0
194 11 3 0.046089 1.55795 17.0983 19.8217 0 0 0
195 11 3 0.046089 0.903487 15.8086 20.7897 0 0 0
196 11 3 0.033922 0.22399 17.4497 -0.670691 0 0 1
197 11 3 0.033922 1.96906 17.6157 22.246 0 0 0
198 11 3 0.033922 0.783793 18.7473 21.5335 0 0 0
199 12 1 -0.091211 1.84213 8.21702 12.6541 0 0 0
200 12 1 -0.050311 2.07458 8.39917 11.2009 0 0 0
201 12 2 -0.174311 1.57661 7.29352 10.3499 0 0 0
202 12 2 -0.174311 1.186 7.32794 8.95609 0 0 0
203 12 1 -0.050311 1.07589 8.6908 8.23106 0 0 0
204 12 1 -0.091211 0.593849 8.55109 6.78459 0 0 0
205 12 3 0.033922 2.4461 8.8755 13.2851 0 0 0
206 12 3 0.033922 2.02835 7.16046 12.8677 0 0 0
207 12 3 0.033922 0.794786 8.37898 12.9251 0 0 0
208 12 3 0.046089 1.52976 9.3278 11.0074 0 0 0
209 12 3 0.046089 3.15802 8.50737 11.0956 0 0 0
210 12 4 0.121889 1.48272 6.30006 10.7768 0 0 0
211 12 4 0.121889 0.895775 6.39176 8.48991 0 0 0
212 12 3 0.046089 2.00631 9.26395 8.28038 0 0 0
213 12 3 0.046089 0.393882 9.38702 8.7278 0 0 0
214 12 3 0.033922 1.2779 7.9208 6.20891 0 0 0
215 12 3 0.033922 -0.391446 8.08516 6.87792 0 0 0
216 12 3 0.033922 0.505116 9.5539 6.35668 0 0 0
217 13 1 -0.091211 -2.471 12.3203 7.67626 0 0 1
218 13 1 -0.050311 -1.22965 11.9303 8.48815 0 0 1
219 13 2 -0.174311 -1.51258 12.1 9.91959 0 0 1
220 13 2 -0.174311 -0.603725 12.4917 10.8721 0 0 1
221 13 1 -0.050311 0.858961 12.6819 10.571 0 0 1
222 13 1 -0.091211 1.69802 12.3646 11.764 0 0 1
223 13 3 0.033922 -3.35284 11.9234 8.18753 0 0 1
224 13 3 0.033922 -2.52567 11.8091 6.71071 0 0 1
225 13 3 0.033922 -2.67159 13.3946 7.6292 0 0 1
226 13 3 0.046089 -1.07372 10.849 8.43384 0 0 1
227 13 3 0.046089 -0.365207 12.4726 8.09409 0 0 1
228 13 4 0.121889 -2.52243 11.9127 10.2705 0 0 1
229 13 4 0.121889 -0.861542 12.5004 11.9264 0 0 1
230 13 3 0.046089 0.938796 13.7638 10.4308 0 0 1
231 13 3 0.046089 1.15529 12.1215 9.6795 0 0 1
232 13 3 0.033922 1.49163 11.3606 12.1463 0 0 1
233 13 3 0.033922 2.76283 12.4416 11.5256 0 0 1
234 13 3 0.033922 1.61597 13.0944 12.5747 0 0 1
235 14 1 -0.091211 15.3908 9.64532 8.86005 0 0 0
236 14 1 -0.050311 15.4631 9.74874 7.32345 0 0 0
237 14 2 -0.174311 14.2847 9.07725 6.58717 0 0 0
238 14 2 -0.174311 14.231 8.74261 5.22994 0 0 0
239 14 1 -0.050311 15.4202 8.97303 4.20912 0 0 0
240 14 1 -0.091211 15.1694 8.54895 2.79333 0 0 0
241 14 3 0.033922 15.7554 8.69044 9.24968 0 0 0
242 14 3 0.033922 14.3763 9.84145 9.2193 0 0 0
243 14 3 0.033922 16.1353 10.3382 9.26284 0 0 0
244 14 3 0.046089 15.4867 10.7965 7.01008 0 0 0
245 14 3 0.046089 16.4302 9.36748 6.98285 0 0 0
246 14 4 0.121889 13.4068 8.94744 7.21206 0 0 0
247 14 4 0.121889 13.3362 8.21169 4.92076 0 0 0
248 14 3 0.046089 16.3413 8.55766 4.62809 0 0 0
249 14 3 0.046089 15.5892 10.0529 4.16429 0 0 0
250 14 3 0.033922 16.063 8.86042 2.24468 0 0 0
251 14 3 0.033922 14.8171 7.51725 2.7035 0 0 0
252 14 3 0.033922 14.3258 9.13219 2.41288 0 0 0
253 15 1 -0.091211 4.52879 8.17535 21.406 0 1 0
254 15 1 -0.050311 3.90986 7.50321 -0.689369 0 1 1
255 15 2 -0.174311 2.38687 7.35777 -0.880248 0 1 1
256 15 2 -0.174311 1.58796 6.40927 -0.217855 0 1 1
257 15 1 -0.050311 2.16339 5.2358 0.608953 0 1 1
258 15 1 -0.091211 1.39069 3.90753 0.441232 0 1 1
259 15 3 0.033922 4.24567 7.66417 20.4813 0 1 0
260 15 3 0.033922 5.61358 8.19098 21.5459 0 1 0
261 15 3 0.033922 4.19765 9.21677 21.3569 0 1 0
262 15 3 0.046089 4.40893 6.54649 22.7517 0 1 0
263 15 3 0.046089 4.14656 8.17161 0.143563 0 1 1
264 15 4 0.121889 1.85893 8.0279 21.7104 0 1 0
265 15 4 0.121889 0.548121 6.37723 -0.527218 0 1 1
266 15 3 0.046089 2.18244 5.47237 1.67676 0 1 1
267 15 3 0.046089 3.21846 5.12702 0.341381 0 1 1
268 15 3 0.033922 0.31547 4.09306 0.363165 0 1 1
269 15 3 0.033922 1.71737 3.36521 -0.450802 0 1 1
270 15 3 0.033922 1.56659 3.19961 1.25639 0 1 1
271 16 1 -0.091211 11.4291 19.6504 7.8344 0 0 0
272 16 1 -0.050311 11.5236 2.93262 7.6346 0 1 0
273 16 2 -0.174311 12.829 3.52023 8.17053 0 1 0
274 16 2 -0.174311 13.7637 4.27297 7.50505 0 1 0
275 16 1 -0.050311 13.6298 4.8469 6.13426 0 1 0
276 16 1 -0.091211 14.2873 3.89626 5.1178 0 1 0
277 16 3 0.033922 11.3539 19.417 8.90041 0 0 0
278 16 3 0.033922 12.3389 19.1564 7.48113 0 0 0
279 16 3 0.033922 10.5336 19.1522 7.45186 0 0 0
280 16 3 0.046089 11.5326 3.06959 6.54939 0 1 0
281 16 3 0.046089 10.6869 3.44679 8.11648 0 1 0
282 16 4 0.121889 13.0687 3.28488 9.20256 0 1 0
283 16 4 0.121889 14.6968 4.52646 7.99797 0 1 0
284 16 3 0.046089 14.0909 5.83521 6.0491 0 1 0
285 16 3 0.046089 12.5624 4.99985 5.94984 0 1 0
286 16 3 0.033922 13.9014 2.87273 5.12728 0 1 0
287 16 3 0.033922 13.9817 4.31784 4.15581 0 1 0
288 16 3 0.033922 15.3747 3.83956 5.22218 0 1 0
289 17 1 -0.091211 10.9351 6.75763 8.12732 0 0 0
290 17 1 -0.050311 10.9634 7.59834 9.47555 0 0 0
291 17 2 -0.174311 10.8703 9.10844 9.19178 0 0 0
292 17 2 -0.174311 11.4623 10.1028 10.021 0 0 0
293 17 1 -0.050311 12.1972 9.77737 11.3064 0 0 0
294 17 1 -0.091211 11.9259 10.822 12.3493 0 0 0
295 17 3 0.033922 11.0895 5.70115 8.36524 0 0 0
296 17 3 0.033922 11.6974 7.11351 7.4282 0 0 0
297 17 3 0.033922 9.96586 6.91645 7.64565 0 0 0
298 17 3 0.046089 10.1676 7.32445 10.1743 0 0 0
299 17 3 0.046089 11.9227 7.41484 9.96809 0 0 0
300 17 4 0.121889 10.2717 9.37299 8.32596 0 0 0
301 17 4 0.121889 11.3947 11.1585 9.77819 0 0 0
302 17 3 0.046089 13.2596 9.87736 11.0656 0 0 0
303 17 3 0.046089 12.105 8.7287 11.6038 0 0 0
304 17 3 0.033922 12.2684 11.7501 11.8824 0 0 0
305 17 3 0.033922 10.8664 10.9758 12.5739 0 0 0
306 17 3 0.033922 12.5497 10.609 13.2223 0 0 0
307 18 1 -0.091211 33.9798 8.22164 14.9762 -1 0 1
308 18 1 -0.050311 33.6811 8.06083 13.4874 -1 0 1
309 18 2 -0.174311 33.0886 6.73603 13.3326 -1 0 1
310 18 2 -0.174311 33.7898 5.55459 13.1689 -1 0 1
311 18 1 -0.050311 35.2413 5.35575 12.9969 -1 0 1
312 18 1 -0.091211 35.6558 3.8816 13.1159 -1 0 1
313 18 3 0.033922 34.4903 9.18407 15.0747 -1 0 1
314 18 3 0.033922 34.6673 7.4148 15.2462 -1 0 1
315 18 3 0.033922 33.0418 8.22355 15.5389 -1 0 1
316 18 3 0.046089 33.0349 8.88036 13.1596 -1 0 1
317 18 3 0.046089 34.5852 8.23552 12.897 -1 0 1
318 18 4 0.121889 32.0231 6.65866 13.5243 -1 0 1
319 18 4 0.121889 33.2037 4.64173 13.1334 -1 0 1
320 18 3 0.046089 35.7695 6.01959 13.6874 -1 0 1
321 18 3 0.046089 35.5798 5.74463 12.0322 -1 0 1
322 18 3 0.033922 35.9215 3.63415 14.1477 -1 0 1
323 18 3 0.033922 34.9575 3.1539 12.6923 -1 0 1
324 18 3 0.033922 36.6101 3.73701 12.6012 -1 0 1
325 19 1 -0.091211 10.5548 8.34775 3.49035 0 0 0
326 19 1 -0.050311 9.32099 9.07624 2.83856 0 0 0
327 19 2 -0.174311 8.84215 8.44681 1.53752 0 0 0
328 19 2 -0.174311 7.85002 8.88019 0.698385 0 0 0
329 19 1 -0.050311 7.05057 10.1781 0.975543 0 0 0
330 19 1 -0.091211 7.12394 11.1405 -0.233088 0 0 0
331 19 3 0.033922 10.5988 8.68246 4.53082 0 0 0
332 19 3 0.033922 11.4408 8.53134 2.87567 0 0 0
333 19 3 0.033922 10.3498 7.2787 3.59873 0 0 0
334 19 3 0.046089 8.41855 9.04914 3.45619 0 0 0
335 19 3 0.046089 9.5341 10.1301 2.63693 0 0 0
336 19 4 0.121889 9.28594 7.47922 1.3258 0 0 0
337 19 4 0.121889 7.53287 8.3272 -0.18 0 0 0
338 19 3 0.046089 7.39759 10.7058 1.86863 0 0 0
339 19 3 0.046089 6.02775 9.83693 1.16011 0 0 0
340 19 3 0.033922 6.45577 10.9495 -1.07786 0 0 0
341 19 3 0.033922 6.7779 12.1051 0.149547 0 0 0
342 19 3 0.033922 8.14608 11.2291 -0.612541 0 0 0
343 20 1 -0.091211 13.6619 15.9316 5.04071 0 -1 0
344 20 1 -0.050311 13.2053 17.4267 5.19297 0 -1 0
345 20 2 -0.174311 13.2998 18.0918 3.85535 0 -1 0
346 20 2 -0.174311 12.3323 18.6647 3.08063 0 -1 0
347 20 1 -0.050311 10.8681 18.8046 3.50483 0 -1 0
348 20 1 -0.091211 9.96838 19.4286 2.39751 0 -1 0
349 20 3 0.033922 14.7224 15.8281 4.79322 0 -1 0
350 20 3 0.033922 13.0408 15.4344 4.28992 0 -1 0
351 20 3 0.033922 13.5372 15.4961 6.03638 0 -1 0
352 20 3 0.046089 12.1649 17.5047 5.52149 0 -1 0
353 20 3 0.046089 13.8811 17.8719 5.92899 0 -1 0
354 20 4 0.121889 14.2783 18.2432 3.41069 0 -1 0
355 20 4 0.121889 12.6266 19.1857 2.17517 0 -1 0
356 20 3 0.046089 10.8532 19.4988 4.35003 0 -1 0
357 20 3 0.046089 10.4754 17.8471 3.85927 0 -1 0
358 20 3 0.033922 10.1474 2.26299 2.20483 0 0 0
359 20 3 0.033922 10.0813 18.9352 1.42778 0 -1 0
360 20 3 0.033922 8.90894 19.2395 2.59356 0 -1 0
361 21 1 -0.091211 -3.158 2.21975 20.7353 0 0 0
362 21 1 -0.050311 -3.17601 2.10303 -1.02729 0 0 1
363 21 2 -0.174311 -1.7907 1.92878 -0.373152 0 0 1
364 21 2 -0.174311 -1.59137 19.4654 0.878168 0 -1 1
365 21 1 -0.050311 -2.69951 18.7932 1.66269 0 -1 1
366 21 1 -0.091211 -2.11628 17.8634 2.6382 0 -1 1
367 21 3 0.033922 -2.46729 2.98815 20.376 0 0 0
368 21 3 0.033922 -4.18904 2.40311 20.4192 0 0 0
369 21 3 0.033922 -2.95522 19.4711 20.2851 0 -1 0
370 21 3 0.046089 -3.57785 3.01955 -0.585576 0 0 1
371 21 3 0.046089 -3.81451 19.5092 -0.688907 0 -1 1
372 21 4 0.121889 -0.890302 2.17342 -0.927598 0 0 1
373 21 4 0.121889 -0.607362 19.5751 1.32279 0 -1 1
374 21 3 0.046089 -3.25887 18.1698 0.959092 0 -1 1
375 21 3 0.046089 -3.37732 19.5096 2.13592 0 -1 1
376 21 3 0.033922 -1.44877 18.4163 3.30553 0 -1 1
377 21 3 0.033922 -2.93357 17.3816 3.18276 0 -1 1
378 21 3 0.033922 -1.53652 17.0947 2.11892 0 -1 1
379 22 1 -0.091211 4.54653 15.6553 14.0234 0 -1 0
380 22 1 -0.050311 5.45461 15.0339 15.0364 0 -1 0
381 22 2 -0.174311 6.89442 14.8445 14.4645 0 -1 0
382 22 2 -0.174311 8.01713 14.7562 15.2026 0 -1 0
383 22 1 -0.050311 8.08009 15.0108 16.7066 0 -1 0
384 22 1 -0.091211 8.19432 13.6551 17.4349 0 -1 0
385 22 3 0.033922 3.53576 15.8117 14.4113 0 -1 0
386 22 3 0.033922 4.54215 15.1475 13.0545 0 -1 0
387 22 3 0.033922 4.95618 16.6353 13.7619 0 -1 0
388 22 3 0.046089 5.4234 15.7336 15.8766 0 -1 0
389 22 3 0.046089 4.93311 14.1431 15.3986 0 -1 0
390 22 4 0.121889 6.96142 14.7849 13.3829 0 -1 0
391 22 4 0.121889 8.90911 14.6734 14.5898 0 -1 0
392 22 3 0.046089 7.19209 15.5581 17.0361 0 -1 0
393 22 3 0.046089 8.95401 15.6304 16.9279 0 -1 0
394 22 3 0.033922 7.43674 12.966 17.0505 0 -1 0
395 22 3 0.033922 9.22803 13.3075 17.35 0 -1 0
396 22 3 0.033922 7.98337 13.7848 18.5004 0 -1 0
397 23 1 -0.091211 0.948711 8.5878 2.72232 0 0 0
398 23 1 -0.050311 -0.424919 9.09309 3.09675 0 0 0
399 23 2 -0.174311 -1.35168 7.89806 3.20937 0 0 0
400 23 2 -0.174311 -2.67213 8.01595 3.49527 0 0 0
401 23 1 -0.050311 -3.51472 9.29016 3.56007 0 0 0
402 23 1 -0.091211 -4.21223 9.37701 4.90882 0 0 0
403 23 3 0.033922 1.72569 9.33976 2.8881 0 0 0
404 23 3 0.033922 0.954681 8.23785 1.68596 0 0 0
405 23 3 0.033922 1.11433 7.74091 3.39457 0 0 0
406 23 3 0.046089 -0.399092 9.54214 4.09386 0 0 0
407 23 3 0.046089 -0.812927 9.82171 2.37901 0 0 0
408 23 4 0.121889 -0.964034 6.88603 3.1501 0 0 0
409 23 4 0.121889 -3.08537 7.01495 3.56753 0 0 0
410 23 3 0.046089 -4.27319 9.25892 2.77247 0 0 0
411 23 3 0.046089 -2.84961 10.1269 3.32739 0 0 0
412 23 3 0.033922 -3.53939 9.67569 5.71792 0 0 0
413 23 3 0.033922 -5.05996 10.0525 4.76157 0 0 0
414 23 3 0.033922 43.5238 8.37804 5.17876 -1 0 0
415 24 1 -0.091211 -0.444882 12.5764 4.40523 0 0 0
416 24 1 -0.050311 1.03024 12.5992 3.97066 0 0 0
417 24 2 -0.174311 1.81139 13.4795 4.93336 0 0 0
418 24 2 -0.174311 3.12446 13.8238 4.60552 0 0 0
419 24 1 -0.050311 3.89323 13.478 3.37534 0 0 0
420 24 1 -0.091211 4.24776 14.7682 2.62544 0 0 0
421 24 3 0.033922 -0.624466 12.316 5.45235 0 0 0
422 24 3 0.033922 -1.01624 11.8117 3.87101 0 0 0
423 24 3 0.033922 -0.949036 13.5087 4.13443 0 0 0
424 24 3 0.046089 1.40934 11.5761 4.04882 0 0 0
425 24 3 0.046089 1.05686 12.9921 2.95012 0 0 0
426 24 4 0.121889 1.26922 13.7978 5.81805 0 0 0
427 24 4 0.121889 3.62327 14.4853 5.30668 0 0 0
428 24 3 0.046089 3.28181 12.8482 2.72257 0 0 0
429 24 3 0.046089 4.7957 12.9349 3.67076 0 0 0
430 24 3 0.033922 3.40688 15.3713 2.27089 0 0 0
431 24 3 0.033922 4.91799 15.3201 3.29081 0 0 0
432 24 3 0.033922 4.86708 14.478 1.77173 0 0 0
433 25 1 -0.091211 1.16102 9.3569 17.1178 0 0 0
434 25 1 -0.050311 1.35716 7.90309 16.7327 0 0 0
435 25 2 -0.174311 0.223847 7.11838 17.4166 0 0 0
436 25 2 -0.174311 0.294444 6.30777 18.5001 0 0 0
437 25 1 -0.050311 1.54938 5.91709 19.1282 0 0 0
438 25 1 -0.091211 1.17632 4.70793 20.0479 0 0 0
439 25 3 0.033922 0.146682 9.65159 16.8334 0 0 0
440 25 3 0.033922 1.91081 9.97783 16.6189 0 0 0
441 25 3 0.033922 1.14621 9.52535 18.1985 0 0 0
442 25 3 0.046089 1.42931 7.7983 15.6463 0 0 0
443 25 3 0.046089 2.29199 7.51858 17.1508 0 0 0
444 25 4 0.121889 -0.765177 7.27426 16.9977 0 0 0
445 25 4 0.121889 -0.561771 5.7368 18.8448 0 0 0
446 25 3 0.046089 2.0919 6.75045 19.584 0 0 0
447 25 3 0.046089 2.2625 5.48394 18.4208 0 0 0
448 25 3 0.033922 0.784724 3.90627 19.415 0 0 0
449 25 3 0.033922 2.10967 4.35993 20.5 0 0 0
450 25 3 0.033922 0.509635 4.81311 20.9087 0 0 0
451 26 1 -0.091211 -1.75709 14.9406 -0.876704 0 -1 1
452 26 1 -0.050311 -2.05845 14.22 0.426049 0 -1 1
453 26 2 -0.174311 -3.26252 14.7443 1.20942 0 -1 1
454 26 2 -0.174311 -4.20121 13.9049 1.72611 0 -1 1
455 26 1 -0.050311 -4.20857 12.4323 1.65053 0 -1 1
456 26 1 -0.091211 43.1027 11.8804 0.460381 -1 -1 1
457 26 3 0.033922 -2.66442 15.1469 21.8097 0 -1 0
458 26 3 0.033922 -1.04142 14.3829 21.7738 0 -1 0
459 26 3 0.033922 -1.14512 15.8381 -0.747515 0 -1 1
460 26 3 0.046089 -2.18364 13.1705 0.144234 0 -1 1
461 26 3 0.046089 -1.17529 14.244 1.07105 0 -1 1
462 26 4 0.121889 -3.47681 15.8059 1.2809 0 -1 1
463 26 4 0.121889 43.0751 14.3778 2.26567 -1 -1 1
464 26 3 0.046089 43.4735 11.9813 2.55946 -1 -1 1
465 26 3 0.046089 -3.17842 12.0643 1.65175 0 -1 1
466 26 3 0.033922 43.286 10.8094 0.333789 -1 -1 1
467 26 3 0.033922 42.0672 12.1741 0.655321 -1 -1 1
468 26 3 0.033922 -4.69508 12.448 -0.427661 0 -1 1
469 27 1 -0.091211 15.5168 14.8467 20.2557 0 0 -1
470 27 1 -0.050311 16.8562 15.5862 19.7626 0 0 -1
471 27 2 -0.174311 17.2969 16.4876 20.8665 0 0 -1
472 27 2 -0.174311 18.4187 16.1129 21.5937 0 0 -1
473 27 1 -0.050311 19.3599 14.8927 21.2734 0 0 -1
474 27 1 -0.091211 20.2135 14.6688 -0.723564 0 0 0
475 27 3 0.033922 15.1191 14.2689 19.4163 0 0 -1
476 27 3 0.033922 14.7037 15.5273 20.5247 0 0 -1
477 27 3 0.033922 15.6881 14.1955 21.1177 0 0 -1
478 27 3 0.046089 17.5548 14.8183 19.4181 0 0 -1
479 27 3 0.046089 16.5694 16.1722 18.8846 0 0 -1
480 27 4 0.121889 16.6561 17.3565 20.9779 0 0 -1
481 27 4 0.121889 18.7193 16.778 -0.864593 0 0 0
482 27 3 0.046089 19.9895 15.24 20.449 0 0 -1
483 27 3 0.046089 18.7029 14.0505 21.0375 0 0 -1
484 27 3 0.033922 19.6973 14.6859 0.240696 0 0 0
485 27 3 0.033922 20.6752 13.6772 -0.727181 0 0 0
486 27 3 0.033922 21.0471 15.3692 -0.617105 0 0 0
487 28 1 -0.091211 5.57542 16.9545 21.3927 0 -1 -1
488 28 1 -0.050311 6.92555 16.5895 21.9959 0 -1 -1
489 28 2 -0.174311 8.01363 16.6184 20.9379 0 -1 -1
490 28 2 -0.174311 9.08496 17.4471 20.8192 0 -1 -1
491 28 1 -0.050311 9.4289 18.425 21.8751 0 -1 -1
492 28 1 -0.091211 10.4595 19.4478 21.5185 0 -1 -1
493 28 3 0.033922 4.79618 17.0467 22.1549 0 -1 -1
494 28 3 0.033922 5.29727 16.0495 20.8447 0 -1 -1
495 28 3 0.033922 5.65887 17.778 20.6776 0 -1 -1
496 28 3 0.046089 7.21934 17.3104 -0.497138 0 -1 0
497 28 3 0.046089 6.89556 15.6362 -0.730144 0 -1 0
498 28 4 0.121889 8.02959 15.8159 20.2072 0 -1 -1
499 28 4 0.121889 9.78162 17.3419 19.9936 0 -1 -1
500 28 3 0.046089 9.71606 17.8108 -0.528006 0 -1 0
501 28 3 0.046089 8.55977 18.9794 22.2411 0 -1 -1
502 28 3 0.033922 10.3677 1.90525 -0.895103 0 0 0
503 28 3 0.033922 11.4653 19.0178 21.5178 0 -1 -1
504 28 3 0.033922 10.1943 1.74671 20.5969 0 0 -1
505 29 1 -0.091211 4.82774 9.76025 4.03282 0 0 0
506 29 1 -0.050311 4.21325 8.46372 4.34328 0 0 0
507 29 2 -0.174311 4.51025 7.40805 3.35445 0 0 0
508 29 2 -0.174311 4.25884 5.98686 3.54729 0 0 0
509 29 1 -0.050311 3.50339 5.30184 4.70059 0 0 0
510 29 1 -0.091211 4.01795 3.92877 4.94127 0 0 0
511 29 3 0.033922 4.37607 10.2108 3.14426 0 0 0
512 29 3 0.033922 5.88221 9.55212 3.82939 0 0 0
513 29 3 0.033922 4.73832 10.5041 4.82989 0 0 0
514 29 3 0.046089 4.62158 8.0533 5.27139 0 0 0
515 29 3 0.046089 3.12558 8.53061 4.43865 0 0 0
516 29 4 0.121889 4.97733 7.71928 2.42552 0 0 0
517 29 4 0.121889 4.43092 5.34903 2.68617 0 0 0
518 29 3 0.046089 2.41899 5.32102 4.55801 0 0 0
519 29 3 0.046089 3.68916 5.88539 5.60696 0 0 0
520 29 3 0.033922 3.90887 3.30302 4.05071 0 0 0
521 29 3 0.033922 5.06823 3.99256 5.24037 0 0 0
522 29 3 0.033922 3.44564 3.5331 5.78535 0 0 0
523 30 1 -0.091211 3.0784 18.7643 8.92702 0 0 1
524 30 1 -0.050311 3.08352 18.3106 7.4792 0 0 1
525 30 2 -0.174311 1.66695 18.1378 6.93978 0 0 1
526 30 2 -0.174311 1.30889 17.8483 5.63981 0 0 1
527 30 1 -0.050311 2.22992 17.8011 4.42525 0 0 1
528 30 1 -0.091211 1.42287 17.5789 3.10122 0 0 1
529 30 3 0.033922 2.62888 18.0535 9.62657 0 0 1
530 30 3 0.033922 2.52991 19.709 8.98409 0 0 1
531 30 3 0.033922 4.127 18.8624 9.22267 0 0 1
532 30 3 0.046089 3.61697 19.0394 6.86215 0 0 1
533 30 3 0.046089 3.61916 17.3569 7.4966 0 0 1
534 30 4 0.121889 0.862732 18.1195 7.66839 0 0 1
535 30 4 0.121889 0.227666 17.8318 5.54665 0 0 1
536 30 3 0.046089 3.02866 17.0598 4.52062 0 0 1
537 30 3 0.046089 2.73365 18.7695 4.35384 0 0 1
538 30 3 0.033922 1.97846 17.6314 2.16042 0 0 1
539 30 3 0.033922 0.939627 16.605 3.22183 0 0 1
540 30 3 0.033922 0.674073 18.3732 3.03016 0 0 1
541 31 1 -0.091211 18.9036 19.833 1.52287 0 0 1
542 31 1 -0.050311 18.9554 19.9975 -0.00260999 0 0 1
543 31 2 -0.174311 20.1969 2.33238 -0.488701 0 1 1
544 31 2 -0.174311 21.0529 1.78368 21.8117 0 1 0
545 31 1 -0.050311 20.8473 18.6174 21.093 0 0 0
546 31 1 -0.091211 22.138 18.2231 20.3537 0 0 0
547 31 3 0.033922 18.0144 19.2467 1.77216 0 0 1
548 31 3 0.033922 18.8958 2.57222 2.03495 0 1 1
549 31 3 0.033922 19.7494 19.265 1.92099 0 0 1
550 31 3 0.046089 18.761 19.0302 -0.475038 0 0 1
551 31 3 0.046089 18.0767 2.31837 -0.354557 0 1 1
552 31 4 0.121889 20.3206 3.3558 -0.149128 0 1 1
553 31 4 0.121889 21.8878 2.35898 21.4246 0 1 0
554 31 3 0.046089 19.9667 18.6136 20.4442 0 0 0
555 31 3 0.046089 20.6709 17.8518 21.8541 0 0 0
556 31 3 0.033922 22.3913 19.0206 19.6491 0 0 0
557 31 3 0.033922 23.0267 18.0467 20.9667 0 0 0
558 31 3 0.033922 21.987 17.3897 19.6614 0 0 0
559 32 1 -0.091211 14.5922 1.93489 20.3357 0 1 -1
560 32 1 -0.050311 14.6547 2.86179 21.5852 0 1 -1
561 32 2 -0.174311 13.4922 2.66481 -0.801428 0 1 0
562 32 2 -0.174311 12.761 3.68768 -0.22232 0 1 0
563 32 1 -0.050311 12.9101 5.1686 -0.370192 0 1 0
564 32 1 -0.091211 11.6417 5.79612 0.179287 0 1 0
565 32 3 0.033922 15.4815 2.0956 19.7194 0 1 -1
566 32 3 0.033922 13.7389 2.25521 19.7309 0 1 -1
567 32 3 0.033922 14.4273 19.1059 20.567 0 0 -1
568 32 3 0.046089 15.5645 2.66152 22.1584 0 1 -1
569 32 3 0.046089 14.6816 3.8804 21.1873 0 1 -1
570 32 4 0.121889 13.2743 19.9285 -0.35218 0 0 0
571 32 4 0.121889 12.1915 3.40171 0.656263 0 1 0
572 32 3 0.046089 13.0249 5.4047 21.8295 0 1 -1
573 32 3 0.046089 13.7245 5.56584 0.242669 0 1 0
574 32 3 0.033922 11.7977 6.85953 0.382837 0 1 0
575 32 3 0.033922 10.7773 5.64952 -0.47489 0 1 0
576 32 3 0.033922 11.4652 5.29142 1.13359 0 1 0
577 33 1 -0.091211 15.6259 12.3327 12.2511 0 0 0
578 33 1 -0.050311 16.1605 10.953 12.6145 0 0 0
579 33 2 -0.174311 17.1426 11.0251 13.8177 0 0 0
580 33 2 -0.174311 17.0122 10.359 14.9995 0 0 0
581 33 1 -0.050311 15.9119 9.37663 15.3109 0 0 0
582 33 1 -0.091211 16.6845 8.06958 15.5977 0 0 0
583 33 3 0.033922 16.3301 12.9226 11.6572 0 0 0
584 33 3 0.033922 15.3383 12.7909 13.2018 0 0 0
585 33 3 0.033922 14.6831 12.2093 11.7102 0 0 0
586 33 3 0.046089 15.2913 10.3192 12.8131 0 0 0
587 33 3 0.046089 16.59 10.3528 11.8072 0 0 0
588 33 4 0.121889 18.1415 11.4429 13.7426 0 0 0
589 33 4 0.121889 17.7455 10.5212 15.783 0 0 0
590 33 3 0.046089 15.2484 9.13507 14.4754 0 0 0
591 33 3 0.046089 15.2924 9.6397 16.1732 0 0 0
592 33 3 0.033922 17.0768 7.58847 14.697 0 0 0
593 33 3 0.033922 17.4824 8.23364 16.3277 0 0 0
594 33 3 0.033922 16.008 7.34397 16.0586 0 0 0
595 34 1 -0.091211 16.9818 1.57637 9.24532 0 1 0
596 34 1 -0.050311 16.1054 18.5679 9.2285 0 0 0
597 34 2 -0.174311 15.102 18.7028 10.2825 0 0 0
598 34 2 -0.174311 15.1519 18.0553 11.5194 0 0 0
599 34 1 -0.050311 16.3904 17.3378 12.0126 0 0 0
600 34 1 -0.091211 16.2342 16.9764 13.556 0 0 0
601 34 3 0.033922 17.3033 1.80428 10.2657 0 1 0
602 34 3 0.033922 16.4757 2.47788 8.88782 0 1 0
603 34 3 0.033922 17.8551 1.36208 8.6224 0 1 0
604 34 3 0.046089 15.6247 18.4778 8.25006 0 0 0
605 34 3 0.046089 16.6845 17.6554 9.39735 0 0 0
606 34 4 0.121889 14.1615 19.1788 10.0239 0 0 0
607 34 4 0.121889 14.3307 17.9545 12.2218 0 0 0
608 34 3 0.046089 17.35 17.8415 11.8643 0 0 0
609 34 3 0.046089 16.4959 16.3687 11.5163 0 0 0
610 34 3 0.033922 16.0977 17.9054 14.1172 0 0 0
611 34 3 0.033922 15.4467 16.2275 13.6809 0 0 0
612 34 3 0.033922 17.1196 16.3924 13.8234 0 0 0
613 35 1 -0.091211 36.0421 15.3566 19.803 -1 0 0