ITEM: TIMESTEP
32600
ITEM: NUMBER OF ATOMS
1800
ITEM: BOX BOUNDS pp pp pp
-3.2047859186170413e-01 3.9128494091861825e+01
-9.4985276505378025e-02 2.1703640776505559e+01
-1.3791458291632850e+00 2.2632879329163309e+01
ITEM: ATOMS id mol type q x y z ix iy iz
1 1 1 -0.091211 6.75684 18.3849 8.27329 0 -1 0
2 1 1 -0.050311 6.08046 19.2696 9.30131 0 -1 0
3 1 2 -0.174311 4.59434 19.6148 8.9457 0 -1 0
4 1 2 -0.174311 3.44508 19.3804 9.64046 0 -1 0
5 1 1 -0.050311 3.3937 18.673 11.0323 0 -1 0
6 1 1 -0.091211 2.02224 18.7528 11.7009 0 -1 0
7 1 3 0.033922 6.32329 17.3806 8.2835 0 -1 0
8 1 3 0.033922 7.83033 18.4003 8.4835 0 -1 0
9 1 3 0.033922 6.59957 18.7966 7.27209 0 -1 0
10 1 3 0.046089 6.11375 18.7631 10.2704 0 -1 0
11 1 3 0.046089 6.61166 20.224 9.36036 0 -1 0
12 1 4 0.121889 4.33232 20.1415 8.03356 0 -1 0
13 1 4 0.121889 2.50477 19.7993 9.29621 0 -1 0
14 1 3 0.046089 4.15871 19.043 11.7212 0 -1 0
15 1 3 0.046089 3.55786 17.6183 10.7932 0 -1 0
16 1 3 0.033922 2.02431 18.331 12.7102 0 -1 0
17 1 3 0.033922 1.7711 19.8174 11.691 0 -1 0
18 1 3 0.033922 1.21976 18.2647 11.1401 0 -1 0
19 2 1 -0.091211 10.3424 1.12204 18.0073 0 0 0
20 2 1 -0.050311 10.7614 2.48018 17.3692 0 0 0
21 2 2 -0.174311 9.69731 3.55553 17.3855 0 0 0
22 2 2 -0.174311 9.82115 4.67634 16.6246 0 0 0
23 2 1 -0.050311 10.9555 4.94416 15.6939 0 0 0
24 2 1 -0.091211 11.5131 6.34071 15.8098 0 0 0
25 2 3 0.033922 9.49543 0.676875 17.4769 0 0 0
26 2 3 0.033922 9.97073 1.32058 19.0168 0 0 0
27 2 3 0.033922 11.1721 0.419809 17.8842 0 0 0
28 2 3 0.046089 11.5896 2.90385 17.9449 0 0 0
29 2 3 0.046089 11.1322 2.28262 16.3592 0 0 0
30 2 4 0.121889 8.89524 3.34703 18.0864 0 0 0
31 2 4 0.121889 9.04041 5.42653 16.5488 0 0 0
32 2 3 0.046089 10.5466 4.86739 14.6822 0 0 0
33 2 3 0.046089 11.8306 4.28773 15.6876 0 0 0
34 2 3 0.033922 10.908 7.11304 15.326 0 0 0
35 2 3 0.033922 11.6393 6.47497 16.8881 0 0 0
36 2 3 0.033922 12.4263 6.39085 15.2097 0 0 0
37 3 1 -0.091211 5.46287 7.27973 8.75833 0 0 0
38 3 1 -0.050311 4.23074 7.2612 9.68051 0 0 0
39 3 2 -0.174311 4.51726 7.94369 10.9879 0 0 0
40 3 2 -0.174311 3.89756 7.58621 12.1434 0 0 0
41 3 1 -0.050311 2.93724 6.43484 12.2584 0 0 0
42 3 1 -0.091211 3.73097 5.11634 12.2997 0 0 0
43 3 3 0.033922 5.906 8.27617 8.84423 0 0 0
44 3 3 0.033922 5.16829 7.18466 7.70912 0 0 0
45 3 3 0.033922 6.17697 6.49636 9.02869 0 0 0
46 3 3 0.046089 3.39579 7.8171 9.24397 0 0 0
47 3 3 0.046089 3.76755 6.28012 9.8204 0 0 0
48 3 4 0.121889 5.04413 8.89208 11.02 0 0 0
49 3 4 0.121889 4.12807 8.29226 12.9349 0 0 0
50 3 3 0.046089 2.30561 6.48344 11.3666 0 0 0
51 3 3 0.046089 2.32252 6.5029 13.1607 0 0 0
52 3 3 0.033922 3.04581 4.32189 12.6097 0 0 0
53 3 3 0.033922 4.12616 4.92918 11.297 0 0 0
54 3 3 0.033922 4.58258 5.16212 12.9848 0 0 0
55 4 1 -0.091211 0.978049 21.2422 5.3136 0 -1 0
56 4 1 -0.050311 2.37694 20.5815 5.17099 0 -1 0
57 4 2 -0.174311 2.36723 19.1708 5.66182 0 -1 0
58 4 2 -0.174311 1.93607 18.0668 5.08736 0 -1 0
59 4 1 -0.050311 1.39743 18.0223 3.68499 0 -1 0
60 4 1 -0.091211 0.00809149 17.502 3.65463 0 -1 0
61 4 3 0.033922 0.201427 20.5858 4.91027 0 -1 0
62 4 3 0.033922 0.877863 0.45112 4.89958 0 0 0
63 4 3 0.033922 0.710241 21.3597 6.36769 0 -1 0
64 4 3 0.046089 2.82252 20.592 4.17198 0 -1 0
65 4 3 0.046089 3.01004 21.1537 5.85545 0 -1 0
66 4 4 0.121889 2.82691 19.0923 6.64192 0 -1 0
67 4 4 0.121889 2.05975 17.1463 5.64886 0 -1 0
68 4 3 0.046089 1.9992 17.3324 3.08622 0 -1 0
69 4 3 0.046089 1.33077 19.0091 3.21753 0 -1 0
70 4 3 0.033922 39.1587 17.1138 2.67638 -1 -1 0
71 4 3 0.033922 -0.145652 16.7168 4.40061 0 -1 0
72 4 3 0.033922 38.7663 18.3022 3.93603 -1 -1 0
73 5 1 -0.091211 37.0962 2.93993 4.51732 -1 0 0
74 5 1 -0.050311 36.308 4.06681 3.87529 -1 0 0
75 5 2 -0.174311 37.1579 5.08856 3.14241 -1 0 0
76 5 2 -0.174311 37.0135 6.45126 3.09539 -1 0 0
77 5 1 -0.050311 35.8366 7.2329 3.67596 -1 0 0
78 5 1 -0.091211 36.2488 7.87222 5.01159 -1 0 0
79 5 3 0.033922 36.4578 2.30165 5.1352 -1 0 0
80 5 3 0.033922 37.8368 3.44667 5.14292 -1 0 0
81 5 3 0.033922 37.5884 2.32348 3.75944 -1 0 0
82 5 3 0.046089 35.4909 3.63165 3.29247 -1 0 0
83 5 3 0.046089 35.9292 4.67384 4.70277 -1 0 0
84 5 4 0.121889 38.0716 4.75647 2.65975 -1 0 0
85 5 4 0.121889 37.7482 7.13954 2.68974 -1 0 0
86 5 3 0.046089 34.9599 6.61478 3.89078 -1 0 0
87 5 3 0.046089 35.6651 8.06144 2.98262 -1 0 0
88 5 3 0.033922 35.6608 8.76981 5.22418 -1 0 0
89 5 3 0.033922 36.0542 7.14112 5.80169 -1 0 0
90 5 3 0.033922 37.3066 8.15098 5.02668 -1 0 0
91 6 1 -0.091211 9.67216 21.5436 21.6919 0 -1 0
92 6 1 -0.050311 8.45012 0.632794 21.4351 0 0 0
93 6 2 -0.174311 7.64503 0.818646 -1.29652 0 0 1
94 6 2 -0.174311 6.29173 0.994277 -1.19986 0 0 1
95 6 1 -0.050311 5.32016 1.213 21.5756 0 0 0
96 6 1 -0.091211 4.13094 0.253339 21.565 0 0 0
97 6 3 0.033922 9.32922 20.6052 22.1373 0 -1 0
98 6 3 0.033922 10.383 0.223245 22.3721 0 0 0
99 6 3 0.033922 10.0737 21.3393 20.6951 0 -1 0
100 6 3 0.046089 8.9226 1.52653 21.0172 0 0 0
101 6 3 0.046089 7.80249 0.0594405 20.7654 0 0 0
102 6 4 0.121889 8.2162 0.669608 -0.385689 0 0 1
103 6 4 0.121889 5.7431 1.15151 -0.276625 0 0 1
104 6 3 0.046089 5.83307 1.16377 20.6106 0 0 0
105 6 3 0.046089 4.83512 2.19313 21.5484 0 0 0
106 6 3 0.033922 3.76989 0.217613 20.533 0 0 0
107 6 3 0.033922 4.46309 21.0412 21.8193 0 -1 0
108 6 3 0.033922 3.35174 0.630658 22.2337 0 0 0
109 7 1 -0.091211 37.2509 9.70849 8.25648 -1 0 0
110 7 1 -0.050311 36.4848 10.9998 8.01026 -1 0 0
111 7 2 -0.174311 36.7832 11.6335 6.68475 -1 0 0
112 7 2 -0.174311 37.8471 12.4112 6.38272 -1 0 0
113 7 1 -0.050311 38.9371 12.8741 7.34598 -1 0 0
114 7 1 -0.091211 0.250116 14.0984 6.65445 0 0 0
115 7 3 0.033922 38.3073 9.88595 8.47855 -1 0 0
116 7 3 0.033922 37.1537 9.14605 7.32329 -1 0 0
117 7 3 0.033922 36.8427 9.11506 9.07983 -1 0 0
118 7 3 0.046089 35.4318 10.7183 7.91706 -1 0 0
119 7 3 0.046089 36.6693 11.7078 8.82351 -1 0 0
120 7 4 0.121889 36.0881 11.4905 5.86344 -1 0 0
121 7 4 0.121889 38.0106 12.6092 5.32817 -1 0 0
122 7 3 0.046089 0.0504311 11.971 7.60064 0 0 0
123 7 3 0.046089 38.4498 13.2395 8.25467 -1 0 0
124 7 3 0.033922 39.0292 14.9448 6.47712 -1 0 0
125 7 3 0.033922 1.03145 14.3848 7.36453 0 0 0
126 7 3 0.033922 0.767244 13.8645 5.71927 0 0 0
127 8 1 -0.091211 3.12952 4.37501 15.6675 0 0 0
128 8 1 -0.050311 3.99542 4.72058 16.9038 0 0 0
129 8 2 -0.174311 5.3674 5.37621 16.682 0 0 0
130 8 2 -0.174311 6.37154 5.49002 17.6706 0 0 0
131 8 1 -0.050311 6.05052 5.20456 19.1775 0 0 0
132 8 1 -0.091211 7.02116 4.22247 19.821 0 0 0
133 8 3 0.033922 3.69931 3.72024 15.0017 0 0 0
134 8 3 0.033922 2.79149 5.32323 15.2395 0 0 0
135 8 3 0.033922 2.27518 3.76739 15.98 0 0 0
136 8 3 0.046089 3.39235 5.38021 17.5346 0 0 0
137 8 3 0.046089 4.15088 3.88561 17.5933 0 0 0
138 8 4 0.121889 5.61504 5.86434 15.7448 0 0 0
139 8 4 0.121889 7.28853 5.97313 17.3483 0 0 0
140 8 3 0.046089 5.03393 4.82741 19.3227 0 0 0
141 8 3 0.046089 6.11014 6.09801 19.8058 0 0 0
142 8 3 0.033922 6.78057 3.94731 20.852 0 0 0
143 8 3 0.033922 6.97824 3.28405 19.2605 0 0 0
144 8 3 0.033922 8.06332 4.55402 19.7933 0 0 0
145 9 1 -0.091211 3.76928 7.91272 19.6613 0 0 0
146 9 1 -0.050311 3.16887 8.61419 20.8117 0 0 0
147 9 2 -0.174311 1.71346 8.37769 20.6608 0 0 0
148 9 2 -0.174311 0.713467 9.26836 20.9738 0 0 0
149 9 1 -0.050311 0.931132 10.767 21.4175 0 0 0
150 9 1 -0.091211 38.9572 11.4466 21.4713 -1 0 0
151 9 3 0.033922 3.66945 6.8271 19.7512 0 0 0
152 9 3 0.033922 4.81726 8.20465 19.7766 0 0 0
153 9 3 0.033922 3.34107 8.27495 18.7221 0 0 0
154 9 3 0.046089 3.6215 8.13747 21.6861 0 0 0
155 9 3 0.046089 3.42691 9.67618 20.7647 0 0 0
156 9 4 0.121889 1.33384 7.45339 20.2371 0 0 0
157 9 4 0.121889 -0.322342 8.94425 20.9892 0 0 0
158 9 3 0.046089 1.57679 11.3015 20.7146 0 0 0
159 9 3 0.046089 1.30579 10.8356 22.4429 0 0 0
160 9 3 0.033922 38.3984 10.9256 22.2543 -1 0 0
161 9 3 0.033922 39.0392 12.4976 21.763 -1 0 0
162 9 3 0.033922 38.3887 11.3654 20.5402 -1 0 0
163 10 1 -0.091211 8.95969 8.93887 5.76849 0 0 1
164 10 1 -0.050311 10.1239 8.17634 6.27657 0 0 1
165 10 2 -0.174311 10.2219 6.96824 5.43433 0 0 1
166 10 2 -0.174311 11.3196 6.3802 4.88413 0 0 1
167 10 1 -0.050311 12.7101 6.88055 5.08618 0 0 1
168 10 1 -0.091211 13.3124 7.16543 3.66974 0 0 1
169 10 3 0.033922 9.03275 9.33281 4.7506 0 0 1
170 10 3 0.033922 8.77324 9.89939 6.25762 0 0 1
171 10 3 0.033922 8.02489 8.37124 5.79473 0 0 1
172 10 3 0.046089 11.0215 8.79483 6.36867 0 0 1
173 10 3 0.046089 9.85235 7.78941 7.26309 0 0 1
174 10 4 0.121889 9.2725 6.52151 5.15631 0 0 1
175 10 4 0.121889 11.1455 5.57022 4.18297 0 0 1
176 10 3 0.046089 13.2779 6.14409 5.66227 0 0 1
177 10 3 0.046089 12.7317 7.82247 5.642 0 0 1
178 10 3 0.033922 14.402 7.1314 3.76121 0 0 1
179 10 3 0.033922 12.9113 6.43009 2.96616 0 0 1
180 10 3 0.033922 12.9452 8.12821 3.30251 0 0 1
181 11 1 -0.091211 35.8467 11.1476 1.95047 -1 0 0
182 11 1 -0.050311 35.0792 11.7017 3.16279 -1 0 0
183 11 2 -0.174311 33.5901 11.7786 2.78473 -1 0 0
184 11 2 -0.174311 32.5362 11.4244 3.63156 -1 0 0
185 11 1 -0.050311 32.4335 11.3888 5.1649 -1 0 0
186 11 1 -0.091211 31.7245 12.6737 5.67964 -1 0 0
187 11 3 0.033922 35.535 10.145 1.64345 -1 0 0
188 11 3 0.033922 36.8581 11.0404 2.35363 -1 0 0
189 11 3 0.033922 35.7921 11.8273 1.09511 -1 0 0
190 11 3 0.046089 35.2473 11.0007 3.98551 -1 0 0
191 11 3 0.046089 35.4022 12.7134 3.42518 -1 0 0
192 11 4 0.121889 33.3996 11.9658 1.73273 -1 0 0
193 11 4 0.121889 31.6041 11.4503 3.0759 -1 0 0
194 11 3 0.046089 33.4476 11.3875 5.5751 -1 0 0
195 11 3 0.046089 31.8705 10.4909 5.43613 -1 0 0
196 11 3 0.033922 31.4748 12.4538 6.7217 -1 0 0
197 11 3 0.033922 32.3681 13.5482 5.5467 -1 0 0
198 11 3 0.033922 30.7938 12.7433 5.10897 -1 0 0
199 12 1 -0.091211 4.80267 14.9735 6.24951 0 0 0
200 12 1 -0.050311 4.43174 14.1714 4.91724 0 0 0
201 12 2 -0.174311 4.14225 12.7737 5.28756 0 0 0
202 12 2 -0.174311 5.0739 11.7494 5.01358 0 0 0
203 12 1 -0.050311 6.31545 11.967 4.14805 0 0 0
204 12 1 -0.091211 6.65343 10.5806 3.38903 0 0 0
205 12 3 0.033922 5.77595 14.7273 6.68412 0 0 0
206 12 3 0.033922 4.01667 14.8483 7 0 0 0
207 12 3 0.033922 4.9208 16.0453 6.06514 0 0 0
208 12 3 0.046089 3.59068 14.6568 4.41346 0 0 0
209 12 3 0.046089 5.29492 14.1957 4.24561 0 0 0
210 12 4 0.121889 3.2128 12.3746 5.68118 0 0 0
211 12 4 0.121889 4.79517 10.7819 5.41894 0 0 0
212 12 3 0.046089 7.15934 12.3746 4.71239 0 0 0
213 12 3 0.046089 6.06253 12.5734 3.27344 0 0 0
214 12 3 0.033922 5.84833 10.3799 2.67612 0 0 0
215 12 3 0.033922 7.62039 10.7033 2.89233 0 0 0
216 12 3 0.033922 6.7524 9.75787 4.10309 0 0 0
217 13 1 -0.091211 8.88826 11.1799 8.89226 0 0 0
218 13 1 -0.050311 7.77119 12.3136 9.1362 0 0 0
219 13 2 -0.174311 7.03301 12.1197 10.4461 0 0 0
220 13 2 -0.174311 6.58975 13.0486 11.3299 0 0 0
221 13 1 -0.050311 6.42984 14.4577 10.8998 0 0 0
222 13 1 -0.091211 5.9802 15.3837 12.0064 0 0 0
223 13 3 0.033922 8.50804 10.2358 8.49119 0 0 0
224 13 3 0.033922 9.43775 11.0431 9.82823 0 0 0
225 13 3 0.033922 9.60878 11.6706 8.23142 0 0 0
226 13 3 0.046089 8.13786 13.3442 9.13912 0 0 0
227 13 3 0.046089 7.07803 12.3935 8.29367 0 0 0
228 13 4 0.121889 6.94761 11.0873 10.7698 0 0 0
229 13 4 0.121889 6.12763 12.694 12.2457 0 0 0
230 13 3 0.046089 5.70422 14.4059 10.0828 0 0 0
231 13 3 0.046089 7.40085 14.8329 10.5635 0 0 0
232 13 3 0.033922 5.01176 15.1349 12.4502 0 0 0
233 13 3 0.033922 6.72708 15.1797 12.7792 0 0 0
234 13 3 0.033922 6.09192 16.3966 11.6086 0 0 0
235 14 1 -0.091211 15.9624 6.38482 16.6209 0 0 0
236 14 1 -0.050311 16.3712 7.81491 16.7944 0 0 0
237 14 2 -0.174311 16.6976 8.07558 18.3063 0 0 0
238 14 2 -0.174311 15.8372 8.72578 19.2481 0 0 0
239 14 1 -0.050311 14.4992 9.23203 18.8893 0 0 0
240 14 1 -0.091211 13.3545 8.35728 19.448 0 0 0
241 14 3 0.033922 15.0532 6.17294 17.1912 0 0 0
242 14 3 0.033922 16.7487 5.79868 17.1056 0 0 0
243 14 3 0.033922 15.878 6.03993 15.5862 0 0 0
244 14 3 0.046089 17.2227 8.01423 16.1371 0 0 0
245 14 3 0.046089 15.5717 8.35543 16.2792 0 0 0
246 14 4 0.121889 17.6866 7.78485 18.646 0 0 0
247 14 4 0.121889 16.1785 9.06123 20.2223 0 0 0
248 14 3 0.046089 14.432 9.2368 17.7975 0 0 0
249 14 3 0.046089 14.5283 10.2635 19.2525 0 0 0
250 14 3 0.033922 12.4697 8.47086 18.8148 0 0 0
251 14 3 0.033922 13.5896 7.29068 19.5092 0 0 0
252 14 3 0.033922 13.2996 8.59212 20.515 0 0 0
253 15 1 -0.091211 7.96303 17.8292 20.1444 0 0 0
254 15 1 -0.050311 6.64519 18.5499 20.4279 0 0 0
255 15 2 -0.174311 6.02836 19.2983 19.2718 0 0 0
256 15 2 -0.174311 4.98658 18.774 18.4674 0 0 0
257 15 1 -0.050311 4.43227 17.4118 18.5776 0 0 0
258 15 1 -0.091211 3.3792 17.3708 19.5875 0 0 0
259 15 3 0.033922 7.81071 17.1111 19.3334 0 0 0
260 15 3 0.033922 8.50322 17.3795 20.9826 0 0 0
261 15 3 0.033922 8.70078 18.5306 19.7437 0 0 0
262 15 3 0.046089 5.97027 17.8163 20.8785 0 0 0
263 15 3 0.046089 6.76686 19.2797 21.2336 0 0 0
264 15 4 0.121889 6.42878 20.298 19.1367 0 0 0
265 15 4 0.121889 4.42468 19.4313 17.8114 0 0 0
266 15 3 0.046089 5.20259 16.6902 18.8651 0 0 0
267 15 3 0.046089 4.06142 17.1543 17.5812 0 0 0
268 15 3 0.033922 2.56704 18.0324 19.2722 0 0 0
269 15 3 0.033922 3.09201 16.3205 19.692 0 0 0
270 15 3 0.033922 3.76236 17.8137 20.5115 0 0 0
271 16 1 -0.091211 9.07745 18.7311 5.18165 0 0 0
272 16 1 -0.050311 8.72153 19.8111 4.11579 0 0 0
273 16 2 -0.174311 7.57903 20.6585 4.59849 0 0 0
274 16 2 -0.174311 7.4865 0.246731 4.41237 0 1 0
275 16 1 -0.050311 8.31237 1.14484 3.5513 0 1 0
276 16 1 -0.091211 7.45336 2.04381 2.69429 0 1 0
277 16 3 0.033922 9.58944 19.2292 6.0102 0 0 0
278 16 3 0.033922 9.77949 18.0347 4.71376 0 0 0
279 16 3 0.033922 8.22623 18.1918 5.60748 0 0 0
280 16 3 0.046089 9.58747 20.4686 3.99504 0 0 0
281 16 3 0.046089 8.47094 19.3083 3.17717 0 0 0
282 16 4 0.121889 6.72507 20.2162 5.10167 0 0 0
283 16 4 0.121889 6.57755 0.590499 4.89587 0 1 0
284 16 3 0.046089 9.00533 0.606611 2.89798 0 1 0
285 16 3 0.046089 8.7809 1.84835 4.24571 0 1 0
286 16 3 0.033922 8.08413 2.6925 2.07945 0 1 0
287 16 3 0.033922 6.80156 1.42308 2.07257 0 1 0
288 16 3 0.033922 6.80841 2.59838 3.38218 0 1 0
289 17 1 -0.091211 12.9515 12.744 14.2252 0 0 0
290 17 1 -0.050311 11.8593 12.8042 15.2382 0 0 0
291 17 2 -0.174311 10.6935 13.5925 14.6978 0 0 0
292 17 2 -0.174311 9.80843 14.3993 15.3433 0 0 0
293 17 1 -0.050311 9.86144 14.6436 16.8262 0 0 0
294 17 1 -0.091211 10.0273 16.139 17.0827 0 0 0
295 17 3 0.033922 12.6798 12.1161 13.3716 0 0 0
296 17 3 0.033922 13.8822 12.4143 14.6962 0 0 0
297 17 3 0.033922 13.1271 13.7338 13.7938 0 0 0
298 17 3 0.046089 11.5856 11.8024 15.5818 0 0 0
299 17 3 0.046089 12.2564 13.3648 16.0895 0 0 0
300 17 4 0.121889 10.6855 13.5092 13.6156 0 0 0
301 17 4 0.121889 8.93617 14.7051 14.7743 0 0 0
302 17 3 0.046089 10.6468 14.0313 17.2791 0 0 0
303 17 3 0.046089 8.9272 14.301 17.2807 0 0 0
304 17 3 0.033922 10.0215 16.3142 18.1625 0 0 0
305 17 3 0.033922 10.9521 16.6065 16.7321 0 0 0
306 17 3 0.033922 9.17629 16.6738 16.6508 0 0 0
307 18 1 -0.091211 1.11906 10.9266 1.63708 0 0 1
308 18 1 -0.050311 2.01558 11.0611 2.82543 0 0 1
309 18 2 -0.174311 2.94844 9.88086 2.91017 0 0 1
310 18 2 -0.174311 2.88804 8.9379 3.95942 0 0 1
311 18 1 -0.050311 1.93559 8.72169 5.16989 0 0 1
312 18 1 -0.091211 1.20757 7.43721 4.96148 0 0 1
313 18 3 0.033922 0.643139 9.94336 1.57839 0 0 1
314 18 3 0.033922 1.77573 11.0564 0.771851 0 0 1
315 18 3 0.033922 0.349456 11.7016 1.69841 0 0 1
316 18 3 0.046089 2.58976 11.9796 2.67286 0 0 1
317 18 3 0.046089 1.44133 11.0423 3.75633 0 0 1
318 18 4 0.121889 3.65646 9.55617 2.15428 0 0 1
319 18 4 0.121889 3.69605 8.21382 3.92886 0 0 1
320 18 3 0.046089 1.26131 9.5797 5.24633 0 0 1
321 18 3 0.046089 2.52219 8.74424 6.09297 0 0 1
322 18 3 0.033922 0.652326 7.50976 4.02173 0 0 1
323 18 3 0.033922 1.92518 6.61352 4.90417 0 0 1
324 18 3 0.033922 0.432575 7.23701 5.70715 0 0 1
325 19 1 -0.091211 20.6535 7.33809 -1.32653 0 0 0
326 19 1 -0.050311 20.4452 8.85898 -1.07306 0 0 0
327 19 2 -0.174311 19.1273 9.38416 22.5046 0 0 -1
328 19 2 -0.174311 18.0758 9.75147 -0.676065 0 0 0
329 19 1 -0.050311 17.963 9.51685 0.793503 0 0 0
330 19 1 -0.091211 17.3274 8.16789 1.08314 0 0 0
331 19 3 0.033922 19.8751 6.78116 -0.796741 0 0 0
332 19 3 0.033922 21.6238 6.94665 -1.00721 0 0 0
333 19 3 0.033922 20.4779 7.19814 21.6149 0 0 -1
334 19 3 0.046089 20.576 9.0476 -0.00350118 0 0 0
335 19 3 0.046089 21.2005 9.4428 22.4048 0 0 -1
336 19 4 0.121889 19.0436 9.4817 21.4269 0 0 -1
337 19 4 0.121889 17.1005 10.0625 22.9749 0 0 -1
338 19 3 0.046089 17.3675 10.3637 1.14694 0 0 0
339 19 3 0.046089 18.9516 9.59724 1.25498 0 0 0
340 19 3 0.033922 17.8453 7.43916 0.452703 0 0 0
341 19 3 0.033922 17.41 7.87635 2.13424 0 0 0
342 19 3 0.033922 16.2576 8.13016 0.857617 0 0 0
343 20 1 -0.091211 11.174 0.394332 14.0295 0 0 0
344 20 1 -0.050311 12.0384 21.071 14.503 0 -1 0
345 20 2 -0.174311 13.371 21.1656 13.7299 0 -1 0
346 20 2 -0.174311 14.3334 0.30169 13.9729 0 0 0
347 20 1 -0.050311 14.2694 1.32535 15.1404 0 0 0
348 20 1 -0.091211 14.0928 2.69014 14.4506 0 0 0
349 20 3 0.033922 11.5857 1.39508 14.1897 0 0 0
350 20 3 0.033922 10.2268 0.251447 14.5578 0 0 0
351 20 3 0.033922 10.983 0.325062 12.9547 0 0 0
352 20 3 0.046089 12.1744 21.1008 15.588 0 -1 0
353 20 3 0.046089 11.6801 20.0878 14.1843 0 -1 0
354 20 4 0.121889 13.6057 20.3288 13.0798 0 -1 0
355 20 4 0.121889 15.177 0.293355 13.29 0 0 0
356 20 3 0.046089 15.2533 1.37066 15.6165 0 0 0
357 20 3 0.046089 13.5178 1.15092 15.9159 0 0 0
358 20 3 0.033922 14.6564 2.63531 13.5147 0 0 0
359 20 3 0.033922 13.0523 2.85799 14.1571 0 0 0
360 20 3 0.033922 14.3475 3.53114 15.1021 0 0 0
361 21 1 -0.091211 0.202573 -0.0376303 20.3719 0 0 0
362 21 1 -0.050311 0.31827 20.9409 21.7323 0 -1 0
363 21 2 -0.174311 0.929796 19.5369 21.5592 0 -1 0
364 21 2 -0.174311 0.386519 18.4298 22.012 0 -1 0
365 21 1 -0.050311 38.7446 18.2892 -0.941588 -1 -1 1
366 21 1 -0.091211 37.4851 17.9012 22.3661 -1 -1 0
367 21 3 0.033922 1.16617 0.174678 19.8994 0 0 0
368 21 3 0.033922 -0.344855 0.883178 20.5934 0 0 0
369 21 3 0.033922 -0.42993 21.1724 19.7009 0 -1 0
370 21 3 0.046089 0.881439 21.5386 22.455 0 -1 0
371 21 3 0.046089 38.7425 20.9011 22.1133 -1 -1 0
372 21 4 0.121889 1.82119 19.4379 20.9479 0 -1 0
373 21 4 0.121889 0.91085 17.5367 21.6874 0 -1 0
374 21 3 0.046089 38.6348 19.2169 -0.372447 -1 -1 1
375 21 3 0.046089 39.0254 17.5969 -0.142482 -1 -1 1
376 21 3 0.033922 37.6178 16.9218 21.8973 -1 -1 0
377 21 3 0.033922 36.7157 17.6982 -0.895202 -1 -1 1
378 21 3 0.033922 37.1439 18.6896 21.6888 -1 -1 0
379 22 1 -0.091211 4.83006 0.772774 17.1606 0 0 0
380 22 1 -0.050311 6.30607 1.07103 16.9044 0 0 0
381 22 2 -0.174311 6.57801 1.12615 15.3962 0 0 0
382 22 2 -0.174311 6.80257 0.0107795 14.5778 0 0 0
383 22 1 -0.050311 6.76159 20.3934 15.0942 0 -1 0
384 22 1 -0.091211 5.75325 19.5669 14.2871 0 -1 0
385 22 3 0.033922 4.13325 1.53071 16.7909 0 0 0
386 22 3 0.033922 4.61525 0.74151 18.2327 0 0 0
387 22 3 0.033922 4.56688 21.5904 16.7544 0 -1 0
388 22 3 0.046089 6.67532 2.01098 17.3249 0 0 0
389 22 3 0.046089 6.84139 0.224468 17.3442 0 0 0
390 22 4 0.121889 6.67024 2.09344 14.9126 0 0 0
391 22 4 0.121889 7.13865 0.225401 13.5684 0 0 0
392 22 3 0.046089 6.63445 20.2721 16.1739 0 -1 0
393 22 3 0.046089 7.73415 19.9705 14.8258 0 -1 0
394 22 3 0.033922 4.82337 20.1422 14.3203 0 -1 0
395 22 3 0.033922 6.09738 19.4023 13.2619 0 -1 0
396 22 3 0.033922 5.6167 18.5847 14.7488 0 -1 0
397 23 1 -0.091211 5.0276 4.53891 -0.5649 0 0 0
398 23 1 -0.050311 6.00129 5.03239 0.48468 0 0 0
399 23 2 -0.174311 6.21983 6.55966 0.424611 0 0 0
400 23 2 -0.174311 7.24248 7.33161 0.959143 0 0 0
401 23 1 -0.050311 8.29409 6.95982 1.98984 0 0 0
402 23 1 -0.091211 9.49164 6.38701 1.34304 0 0 0
403 23 3 0.033922 4.86784 3.45796 -0.513622 0 0 0
404 23 3 0.033922 5.37897 4.73969 22.4308 0 0 -1
405 23 3 0.033922 4.09587 5.09899 -0.4426 0 0 0
406 23 3 0.046089 5.67974 4.71415 1.48066 0 0 0
407 23 3 0.046089 6.95883 4.56564 0.23561 0 0 0
408 23 4 0.121889 5.54556 7.09311 -0.237872 0 0 0
409 23 4 0.121889 7.23083 8.36878 0.639553 0 0 0
410 23 3 0.046089 7.80407 6.26446 2.67761 0 0 0
411 23 3 0.046089 8.57682 7.83322 2.58469 0 0 0
412 23 3 0.033922 9.27438 5.48988 0.756026 0 0 0
413 23 3 0.033922 10.0761 7.11445 0.772122 0 0 0
414 23 3 0.033922 10.2544 6.05208 2.05208 0 0 0
415 24 1 -0.091211 2.17078 14.3023 -0.0785162 0 0 0
416 24 1 -0.050311 3.37943 15.2427 0.390465 0 0 0
417 24 2 -0.174311 4.4548 15.2413 -0.739465 0 0 0
418 24 2 -0.174311 5.52628 14.5144 -0.747778 0 0 0
419 24 1 -0.050311 5.8731 13.3543 0.176538 0 0 0
420 24 1 -0.091211 6.33178 12.029 -0.56935 0 0 0
421 24 3 0.033922 1.56313 14.7229 -0.88507 0 0 0
422 24 3 0.033922 1.48436 14.1521 0.759923 0 0 0
423 24 3 0.033922 2.64418 13.3746 -0.412931 0 0 0
424 24 3 0.046089 3.10863 16.266 0.666328 0 0 0
425 24 3 0.046089 3.78891 14.7664 1.28611 0 0 0
426 24 4 0.121889 4.43949 16.0291 22.5261 0 0 -1
427 24 4 0.121889 6.2454 14.8528 22.525 0 0 -1
428 24 3 0.046089 5.07946 13.0927 0.882517 0 0 0
429 24 3 0.046089 6.63674 13.6804 0.888791 0 0 0
430 24 3 0.033922 7.31355 12.1178 -1.0437 0 0 0
431 24 3 0.033922 6.45962 11.198 0.130438 0 0 0
432 24 3 0.033922 5.56988 11.6965 -1.28047 0 0 0
433 25 1 -0.091211 7.45747 9.40123 14.6139 0 0 0
434 25 1 -0.050311 7.43675 8.05907 13.917 0 0 0
435 25 2 -0.174311 7.38807 8.17416 12.4417 0 0 0
436 25 2 -0.174311 7.79336 7.21423 11.4956 0 0 0
437 25 1 -0.050311 8.31322 5.83619 11.8114 0 0 0
438 25 1 -0.091211 9.75805 5.71339 11.3456 0 0 0
439 25 3 0.033922 7.71616 9.17985 15.6535 0 0 0
440 25 3 0.033922 6.54342 9.99164 14.5013 0 0 0
441 25 3 0.033922 8.27462 10.0627 14.3115 0 0 0
442 25 3 0.046089 8.30786 7.4943 14.2619 0 0 0
443 25 3 0.046089 6.47284 7.6447 14.2268 0 0 0
444 25 4 0.121889 6.96195 9.10959 12.0932 0 0 0
445 25 4 0.121889 7.72802 7.5939 10.4809 0 0 0
446 25 3 0.046089 7.73577 5.08749 11.2613 0 0 0
447 25 3 0.046089 8.26277 5.69549 12.8951 0 0 0
448 25 3 0.033922 10.4351 6.44525 11.7958 0 0 0
449 25 3 0.033922 10.1316 4.69713 11.5015 0 0 0
450 25 3 0.033922 9.76849 5.90329 10.2683 0 0 0
451 26 1 -0.091211 1.79908 20.1634 16.6133 0 -1 0
452 26 1 -0.050311 0.614328 20.7728 15.8338 0 -1 0
453 26 2 -0.174311 39.1267 19.6188 15.5928 -1 -1 0
454 26 2 -0.174311 38.2085 19.5516 14.5731 -1 -1 0
455 26 1 -0.050311 37.8894 20.602 13.5605 -1 -1 0
456 26 1 -0.091211 36.3472 20.6891 13.2711 -1 -1 0
457 26 3 0.033922 1.41089 19.5879 17.4587 0 -1 0
458 26 3 0.033922 2.47047 20.9362 16.999 0 -1 0
459 26 3 0.033922 2.38643 19.5659 15.9099 0 -1 0
460 26 3 0.046089 0.121545 21.5533 16.4209 0 -1 0
461 26 3 0.046089 1.01709 21.2117 14.9163 0 -1 0
462 26 4 0.121889 39.1205 18.6938 16.1605 -1 -1 0
463 26 4 0.121889 37.4731 18.7538 14.5435 -1 -1 0
464 26 3 0.046089 38.3645 20.3248 12.6149 -1 -1 0
465 26 3 0.046089 38.1905 21.5939 13.9097 -1 -1 0
466 26 3 0.033922 36.1255 21.6693 12.839 -1 -1 0
467 26 3 0.033922 36.1496 19.8952 12.5449 -1 -1 0
468 26 3 0.033922 35.6529 20.5005 14.0952 -1 -1 0
469 27 1 -0.091211 19.2033 13.6369 6.76391 0 0 0
470 27 1 -0.050311 19.2292 12.369 5.90059 0 0 0
471 27 2 -0.174311 19.6005 12.9673 4.5526 0 0 0
472 27 2 -0.174311 20.3539 12.2409 3.69729 0 0 0
473 27 1 -0.050311 20.9171 10.857 3.88886 0 0 0
474 27 1 -0.091211 21.9766 10.4865 2.87182 0 0 0
475 27 3 0.033922 19.0011 13.3476 7.79932 0 0 0
476 27 3 0.033922 18.3845 14.3079 6.48831 0 0 0
477 27 3 0.033922 20.2086 14.0683 6.76292 0 0 0
478 27 3 0.046089 19.9322 11.5923 6.21557 0 0 0
479 27 3 0.046089 18.2113 11.9688 5.92369 0 0 0
480 27 4 0.121889 19.1794 13.8932 4.1738 0 0 0
481 27 4 0.121889 20.4651 12.6888 2.71491 0 0 0
482 27 3 0.046089 20.0943 10.1471 3.76286 0 0 0
483 27 3 0.046089 21.2198 10.6341 4.91618 0 0 0
484 27 3 0.033922 21.6852 10.7578 1.85291 0 0 0
485 27 3 0.033922 22.9482 10.9681 3.01627 0 0 0
486 27 3 0.033922 22.0437 9.39737 2.94848 0 0 0
487 28 1 -0.091211 8.37217 17.732 0.168746 0 -1 0
488 28 1 -0.050311 7.14707 18.5559 0.385991 0 -1 0
489 28 2 -0.174311 6.21246 17.7466 1.14667 0 -1 0
490 28 2 -0.174311 4.97677 18.1598 1.67038 0 -1 0
491 28 1 -0.050311 4.29061 19.4711 1.36181 0 -1 0
492 28 1 -0.091211 3.30163 19.1996 0.271658 0 -1 0
493 28 3 0.033922 9.00195 18.3384 -0.488813 0 -1 0
494 28 3 0.033922 8.17547 16.748 -0.266738 0 -1 0
495 28 3 0.033922 8.91876 17.5843 1.10475 0 -1 0
496 28 3 0.046089 7.39572 19.4712 0.931138 0 -1 0
497 28 3 0.046089 6.7111 18.7896 -0.589716 0 -1 0
498 28 4 0.121889 6.56583 16.7486 1.38589 0 -1 0
499 28 4 0.121889 4.45219 17.4006 2.2418 0 -1 0
500 28 3 0.046089 5.06944 20.1913 1.09458 0 -1 0
501 28 3 0.046089 3.73918 19.9522 2.17488 0 -1 0
502 28 3 0.033922 2.93747 20.1426 -0.146504 0 -1 0
503 28 3 0.033922 3.69174 18.5721 -0.535023 0 -1 0
504 28 3 0.033922 2.50721 18.5646 0.674541 0 -1 0
505 29 1 -0.091211 8.20759 3.96207 6.7461 0 0 0
506 29 1 -0.050311 7.05811 3.31489 7.45954 0 0 0
507 29 2 -0.174311 7.11931 3.53396 8.95048 0 0 0
508 29 2 -0.174311 7.67327 2.62405 9.78837 0 0 0
509 29 1 -0.050311 8.38117 1.3346 9.35718 0 0 0
510 29 1 -0.091211 8.46924 0.448842 10.6353 0 0 0
511 29 3 0.033922 9.18209 3.50869 6.95 0 0 0
512 29 3 0.033922 8.31874 4.95965 7.18095 0 0 0
513 29 3 0.033922 8.02322 4.01878 5.66933 0 0 0
514 29 3 0.046089 6.12499 3.67075 7.01297 0 0 0
515 29 3 0.046089 7.09709 2.28259 7.09974 0 0 0
516 29 4 0.121889 6.53538 4.37397 9.31306 0 0 0
517 29 4 0.121889 7.6329 2.74423 10.8663 0 0 0
518 29 3 0.046089 9.37008 1.58733 8.96354 0 0 0
519 29 3 0.046089 7.88784 0.751209 8.57427 0 0 0
520 29 3 0.033922 7.4884 0.503007 11.1168 0 0 0
521 29 3 0.033922 8.81048 21.2454 10.3597 0 -1 0
522 29 3 0.033922 9.20502 0.814989 11.3573 0 0 0
523 30 1 -0.091211 12.5257 13.7836 19.8784 0 0 0
524 30 1 -0.050311 12.515 13.2348 21.2899 0 0 0
525 30 2 -0.174311 11.0712 12.9076 21.6873 0 0 0
526 30 2 -0.174311 10.4634 13.3903 -1.14472 0 0 1
527 30 1 -0.050311 11.1719 13.99 0.0143882 0 0 1
528 30 1 -0.091211 10.1502 14.3644 1.05849 0 0 1
529 30 3 0.033922 13.532 13.831 19.4519 0 0 0
530 30 3 0.033922 11.942 14.7074 19.8276 0 0 0
531 30 3 0.033922 12.0754 13.0697 19.1825 0 0 0
532 30 3 0.046089 13.0137 12.2719 21.4343 0 0 0
533 30 3 0.046089 12.9722 13.9483 21.9816 0 0 0
534 30 4 0.121889 10.4559 12.3425 20.9943 0 0 0
535 30 4 0.121889 9.39031 13.2501 -1.06032 0 0 1
536 30 3 0.046089 11.6184 14.916 -0.359536 0 0 1
537 30 3 0.046089 11.9475 13.3027 0.364603 0 0 1
538 30 3 0.033922 9.89167 13.4909 1.66406 0 0 1
539 30 3 0.033922 10.4802 15.2048 1.67605 0 0 1
540 30 3 0.033922 9.19273 14.6688 0.625618 0 0 1
541 31 1 -0.091211 19.2754 4.2491 15.4458 0 1 0
542 31 1 -0.050311 18.3185 3.14639 15.6583 0 1 0
543 31 2 -0.174311 18.9187 1.77151 15.9588 0 1 0
544 31 2 -0.174311 18.9932 1.19563 17.2084 0 1 0
545 31 1 -0.050311 18.5299 1.89422 18.4537 0 1 0
546 31 1 -0.091211 17.1363 1.48866 18.9794 0 1 0
547 31 3 0.033922 19.9605 3.97521 14.6381 0 1 0
548 31 3 0.033922 19.7613 4.41865 16.4111 0 1 0
549 31 3 0.033922 18.6707 5.07162 15.0528 0 1 0
550 31 3 0.046089 17.5992 3.42227 16.4349 0 1 0
551 31 3 0.046089 17.7018 3.03143 14.7621 0 1 0
552 31 4 0.121889 19.3751 1.26509 15.1143 0 1 0
553 31 4 0.121889 19.3348 0.167194 17.2691 0 1 0
554 31 3 0.046089 18.7276 2.96523 18.3512 0 1 0
555 31 3 0.046089 19.1914 1.56421 19.2601 0 1 0
556 31 3 0.033922 16.524 1.46973 18.0731 0 1 0
557 31 3 0.033922 17.2569 0.517961 19.4691 0 1 0
558 31 3 0.033922 16.7704 2.28737 19.6311 0 1 0
559 32 1 -0.091211 17.3329 0.516722 3.0125 0 1 0
560 32 1 -0.050311 17.9426 0.0299545 4.41878 0 1 0
561 32 2 -0.174311 17.231 0.649798 5.60794 0 1 0
562 32 2 -0.174311 17.7994 0.795837 6.84142 0 1 0
563 32 1 -0.050311 19.1967 0.374612 7.22311 0 1 0
564 32 1 -0.091211 19.815 1.62157 7.77241 0 1 0
565 32 3 0.033922 17.3555 1.60909 2.95935 0 1 0
566 32 3 0.033922 16.3069 0.160425 2.88178 0 1 0
567 32 3 0.033922 17.8435 0.101037 2.13888 0 1 0
568 32 3 0.046089 17.8301 20.7433 4.49662 0 0 0
569 32 3 0.046089 18.9659 0.411171 4.48484 0 1 0
570 32 4 0.121889 16.2179 1.0054 5.4491 0 1 0
571 32 4 0.121889 17.2805 1.33313 7.62894 0 1 0
572 32 3 0.046089 19.8682 21.8266 6.43215 0 0 0
573 32 3 0.046089 19.3729 21.4025 7.97908 0 0 0
574 32 3 0.033922 20.7648 1.44097 8.28423 0 1 0
575 32 3 0.033922 20.0399 2.27835 6.92702 0 1 0
576 32 3 0.033922 19.2196 2.06434 8.57626 0 1 0
577 33 1 -0.091211 10.492 15.3774 7.93591 0 0 0
578 33 1 -0.050311 11.5375 15.1444 9.02541 0 0 0
579 33 2 -0.174311 10.8434 14.6894 10.3152 0 0 0
580 33 2 -0.174311 10.4447 15.4881 11.3363 0 0 0
581 33 1 -0.050311 10.5381 16.9439 11.4755 0 0 0
582 33 1 -0.091211 11.1478 17.2392 12.8181 0 0 0
583 33 3 0.033922 9.709 16.0368 8.32168 0 0 0
584 33 3 0.033922 9.97932 14.4561 7.64428 0 0 0
585 33 3 0.033922 10.9533 15.9074 7.09753 0 0 0
586 33 3 0.046089 12.3429 14.4298 8.83252 0 0 0
587 33 3 0.046089 12.0847 16.073 9.21255 0 0 0
588 33 4 0.121889 10.535 13.6534 10.4134 0 0 0
589 33 4 0.121889 10.1214 14.832 12.1382 0 0 0
590 33 3 0.046089 9.54798 17.409 11.4671 0 0 0
591 33 3 0.046089 11.1277 17.4862 10.7305 0 0 0
592 33 3 0.033922 12.1808 16.8799 12.8423 0 0 0
593 33 3 0.033922 11.0622 18.3121 13.0135 0 0 0
594 33 3 0.033922 10.5325 16.8389 13.6292 0 0 0
595 34 1 -0.091211 20.6364 15.787 15.8376 0 0 0
596 34 1 -0.050311 20.3934 14.9054 14.6147 0 0 0
597 34 2 -0.174311 19.3226 15.5151 13.7811 0 0 0
598 34 2 -0.174311 18.9157 15.1342 12.5352 0 0 0
599 34 1 -0.050311 19.6597 14.1638 11.6002 0 0 0
600 34 1 -0.091211 19.9062 14.7943 10.2102 0 0 0
601 34 3 0.033922 20.4658 16.8163 15.5089 0 0 0
602 34 3 0.033922 21.6387 15.8406 16.2727 0 0 0
603 34 3 0.033922 19.8262 15.6308 16.5558 0 0 0
604 34 3 0.046089 21.2804 14.74 13.996 0 0 0
605 34 3 0.046089 20.1796 13.8795 14.9286 0 0 0
606 34 4 0.121889 18.6018 16.1604 14.2731 0 0 0
607 34 4 0.121889 17.9611 15.5353 12.2095 0 0 0
608 34 3 0.046089 19.0588 13.252 11.6648 0 0 0
609 34 3 0.046089 20.6347 13.9148 12.0293 0 0 0
610 34 3 0.033922 20.5436 15.6831 10.2248 0 0 0
611 34 3 0.033922 20.3827 14.0881 9.52402 0 0 0
612 34 3 0.033922 18.9822 15.1356 9.73425 0 0 0
613 35 1 -0.091211 0.120836 15.3203 18.5333 0 0 0
614 35 1 -0.050311 0.880311 14.0458 18.3828 0 0 0
615 35 2 -0.174311 0.0602225 12.8516 17.9834 0 0 0
616 35 2 -0.174311 0.516781 11.5801 17.607 0 0 0
617 35 1 -0.050311 1.93318 11.147 17.6028 0 0 0