ITEM: TIMESTEP
84800
ITEM: NUMBER OF ATOMS
1800
ITEM: BOX BOUNDS pp pp pp
-4.9930674276199767e+00 4.3801082927618722e+01
1.4633295484832871e+00 2.0145325951517083e+01
-5.3952438550388138e-01 2.1793257885503355e+01
ITEM: ATOMS id mol type q x y z ix iy iz
1 1 1 -0.091211 4.10607 11.2983 16.3273 0 -1 0
2 1 1 -0.050311 2.97331 12.0853 15.8108 0 -1 0
3 1 2 -0.174311 2.17869 11.2977 14.8427 0 -1 0
4 1 2 -0.174311 2.51681 11.0138 13.5361 0 -1 0
5 1 1 -0.050311 3.82681 11.2944 12.8186 0 -1 0
6 1 1 -0.091211 3.66633 11.9966 11.4831 0 -1 0
7 1 3 0.033922 3.77899 10.4932 16.9917 0 -1 0
8 1 3 0.033922 4.69677 12.0345 16.8802 0 -1 0
9 1 3 0.033922 4.76774 10.918 15.5436 0 -1 0
10 1 3 0.046089 2.34097 12.3378 16.6669 0 -1 0
11 1 3 0.046089 3.28907 13.0199 15.3379 0 -1 0
12 1 4 0.121889 1.23641 10.9043 15.2108 0 -1 0
13 1 4 0.121889 1.81544 10.5098 12.8787 0 -1 0
14 1 3 0.046089 4.23434 10.318 12.5409 0 -1 0
15 1 3 0.046089 4.58413 11.7297 13.4772 0 -1 0
16 1 3 0.033922 4.60061 12.1491 10.9348 0 -1 0
17 1 3 0.033922 2.99905 11.4496 10.8106 0 -1 0
18 1 3 0.033922 3.26314 12.9884 11.7078 0 -1 0
19 2 1 -0.091211 7.64376 5.26653 8.96448 0 0 0
20 2 1 -0.050311 7.9614 4.86392 10.4071 0 0 0
21 2 2 -0.174311 9.37641 4.38267 10.4522 0 0 0
22 2 2 -0.174311 10.2261 4.35888 11.5253 0 0 0
23 2 1 -0.050311 9.95002 4.66768 12.9841 0 0 0
24 2 1 -0.091211 10.0918 3.42846 13.8488 0 0 0
25 2 3 0.033922 7.65521 4.33392 8.39289 0 0 0
26 2 3 0.033922 8.29146 5.9751 8.44002 0 0 0
27 2 3 0.033922 6.62793 5.67231 8.95073 0 0 0
28 2 3 0.046089 7.79113 5.6551 11.1431 0 0 0
29 2 3 0.046089 7.21129 4.09585 10.6171 0 0 0
30 2 4 0.121889 9.81078 3.90723 9.57857 0 0 0
31 2 4 0.121889 11.2176 3.94211 11.3794 0 0 0
32 2 3 0.046089 8.93267 5.03462 13.1487 0 0 0
33 2 3 0.046089 10.647 5.4463 13.3077 0 0 0
34 2 3 0.033922 10.1687 3.66974 14.9129 0 0 0
35 2 3 0.033922 9.32579 2.64915 13.7978 0 0 0
36 2 3 0.033922 11.0264 2.92644 13.5821 0 0 0
37 3 1 -0.091211 -0.202887 5.55041 10.6779 0 0 0
38 3 1 -0.050311 1.28677 5.64663 11.0853 0 0 0
39 3 2 -0.174311 1.94606 4.27929 11.2844 0 0 0
40 3 2 -0.174311 2.94855 3.72342 10.5354 0 0 0
41 3 1 -0.050311 3.8024 4.29156 9.44027 0 0 0
42 3 1 -0.091211 4.44115 3.24622 8.51277 0 0 0
43 3 3 0.033922 -0.219005 5.26685 9.62156 0 0 0
44 3 3 0.033922 -0.791739 6.46568 10.7883 0 0 0
45 3 3 0.033922 -0.680223 4.80593 11.3218 0 0 0
46 3 3 0.046089 1.82101 6.26928 10.3617 0 0 0
47 3 3 0.046089 1.41732 6.20339 12.0178 0 0 0
48 3 4 0.121889 1.54772 3.71245 12.1198 0 0 0
49 3 4 0.121889 3.32004 2.81745 11.0036 0 0 0
50 3 3 0.046089 4.66954 4.78971 9.88367 0 0 0
51 3 3 0.046089 3.31204 5.07311 8.85259 0 0 0
52 3 3 0.033922 5.1975 3.78893 7.93826 0 0 0
53 3 3 0.033922 4.89398 2.51192 9.18535 0 0 0
54 3 3 0.033922 3.71521 2.77869 7.84114 0 0 0
55 4 1 -0.091211 -3.46786 18.3864 12.3043 0 -1 0
56 4 1 -0.050311 -2.01913 18.5691 12.3796 0 -1 0
57 4 2 -0.174311 -1.73447 19.9175 12.9943 0 -1 0
58 4 2 -0.174311 -0.59096 20.146 13.7903 0 -1 0
59 4 1 -0.050311 0.44908 19.1072 14.0962 0 -1 0
60 4 1 -0.091211 1.66088 19.4869 14.9736 0 -1 0
61 4 3 0.033922 -3.9611 18.8752 13.1495 0 -1 0
62 4 3 0.033922 -3.6952 17.3206 12.209 0 -1 0
63 4 3 0.033922 -3.79893 18.9028 11.3985 0 -1 0
64 4 3 0.046089 -1.56315 17.7421 12.9316 0 -1 0
65 4 3 0.046089 -1.62656 18.6446 11.3613 0 -1 0
66 4 4 0.121889 -2.47763 2.01142 12.84 0 0 0
67 4 4 0.121889 -0.341573 2.47997 14.0796 0 0 0
68 4 3 0.046089 0.812324 18.7661 13.1224 0 -1 0
69 4 3 0.046089 -0.0850572 18.248 14.5123 0 -1 0
70 4 3 0.033922 1.31393 19.5706 16.0076 0 -1 0
71 4 3 0.033922 2.41957 18.7138 14.8209 0 -1 0
72 4 3 0.033922 2.12065 1.72228 14.5944 0 0 0
73 5 1 -0.091211 -2.53203 8.98942 9.78737 0 0 0
74 5 1 -0.050311 -3.79984 8.17815 9.82721 0 0 0
75 5 2 -0.174311 43.6764 8.68252 10.4606 -1 0 0
76 5 2 -0.174311 43.0159 9.83057 10.1072 -1 0 0
77 5 1 -0.050311 43.3725 10.6371 8.93229 -1 0 0
78 5 1 -0.091211 42.1824 11.2909 8.20315 -1 0 0
79 5 3 0.033922 -2.76463 9.99263 9.41844 0 0 0
80 5 3 0.033922 -1.86883 8.51075 9.06095 0 0 0
81 5 3 0.033922 -2.01673 9.1109 10.7446 0 0 0
82 5 3 0.046089 -4.0684 7.87018 8.81251 0 0 0
83 5 3 0.046089 -3.6586 7.21102 10.3185 0 0 0
84 5 4 0.121889 43.2932 8.16848 11.3363 -1 0 0
85 5 4 0.121889 42.0148 9.96916 10.503 -1 0 0
86 5 3 0.046089 43.8518 10.0016 8.18197 -1 0 0
87 5 3 0.046089 -4.78491 11.4688 9.2479 0 0 0
88 5 3 0.033922 41.617 11.8665 8.9418 -1 0 0
89 5 3 0.033922 42.4917 11.9037 7.35146 -1 0 0
90 5 3 0.033922 41.5733 10.5501 7.67692 -1 0 0
91 6 1 -0.091211 6.43182 7.46014 -0.0575559 0 0 1
92 6 1 -0.050311 7.31748 6.25312 -0.455295 0 0 1
93 6 2 -0.174311 7.87367 5.59766 0.820017 0 0 1
94 6 2 -0.174311 8.17154 4.22546 0.998527 0 0 1
95 6 1 -0.050311 7.6312 3.12766 0.196472 0 0 1
96 6 1 -0.091211 7.90671 1.73976 0.716071 0 0 1
97 6 3 0.033922 6.28682 8.18583 21.4697 0 0 0
98 6 3 0.033922 6.86494 8.06109 0.747349 0 0 1
99 6 3 0.033922 5.41931 7.12034 0.179293 0 0 1
100 6 3 0.046089 6.87021 5.48173 21.2438 0 0 0
101 6 3 0.046089 8.16391 6.63396 21.2985 0 0 0
102 6 4 0.121889 8.2213 6.30366 1.56749 0 0 1
103 6 4 0.121889 8.67831 4.01075 1.93398 0 0 1
104 6 3 0.046089 8.03188 3.22286 21.5159 0 0 0
105 6 3 0.046089 6.53921 3.13158 0.130816 0 0 1
106 6 3 0.033922 7.47469 19.7713 -0.049976 0 -1 1
107 6 3 0.033922 8.96866 20.1916 0.842747 0 -1 1
108 6 3 0.033922 7.3114 1.59003 1.6215 0 0 1
109 7 1 -0.091211 34.8999 1.93648 18.6894 -1 1 -1
110 7 1 -0.050311 33.7978 19.7003 18.0485 -1 0 -1
111 7 2 -0.174311 32.7979 1.96919 17.3886 -1 1 -1
112 7 2 -0.174311 32.6618 2.40017 16.0496 -1 1 -1
113 7 1 -0.050311 33.6655 1.93846 15.0967 -1 1 -1
114 7 1 -0.091211 34.0714 3.09823 14.2242 -1 1 -1
115 7 3 0.033922 34.3943 2.55571 19.4361 -1 1 -1
116 7 3 0.033922 35.339 2.62647 17.9629 -1 1 -1
117 7 3 0.033922 35.7309 20.0336 19.0945 -1 0 -1
118 7 3 0.046089 34.2627 18.9749 17.3745 -1 0 -1
119 7 3 0.046089 33.2532 19.0817 18.7677 -1 0 -1
120 7 4 0.121889 32.0667 2.44479 18.0345 -1 1 -1
121 7 4 0.121889 31.9458 3.18587 15.8302 -1 1 -1
122 7 3 0.046089 33.2339 19.7576 14.5811 -1 0 -1
123 7 3 0.046089 34.5048 1.51011 15.6523 -1 1 -1
124 7 3 0.033922 34.4531 4.03303 14.645 -1 1 -1
125 7 3 0.033922 34.8656 2.69467 13.5894 -1 1 -1
126 7 3 0.033922 33.2354 3.45012 13.6126 -1 1 -1
127 8 1 -0.091211 -4.12733 9.60326 0.66129 0 0 1
128 8 1 -0.050311 43.4431 8.69741 0.940696 -1 0 1
129 8 2 -0.174311 42.4028 8.76619 -0.199183 -1 0 1
130 8 2 -0.174311 41.0027 8.53765 -0.0426706 -1 0 1
131 8 1 -0.050311 40.1713 8.55042 1.18232 -1 0 1
132 8 1 -0.091211 38.8529 7.78799 0.925536 -1 0 1
133 8 3 0.033922 -4.40096 10.6024 0.309904 0 0 1
134 8 3 0.033922 -3.46541 9.2079 -0.114727 0 0 1
135 8 3 0.033922 -3.49593 9.76191 1.54038 0 0 1
136 8 3 0.046089 43.8111 7.67086 1.0268 -1 0 1
137 8 3 0.046089 42.9562 8.97996 1.87863 -1 0 1
138 8 4 0.121889 42.663 8.65976 21.0853 -1 0 0
139 8 4 0.121889 40.4419 8.4528 21.3647 -1 0 0
140 8 3 0.046089 40.0167 9.59189 1.47909 -1 0 1
141 8 3 0.046089 40.7155 8.03336 1.97799 -1 0 1
142 8 3 0.033922 38.1644 7.95107 1.75988 -1 0 1
143 8 3 0.033922 38.4329 8.27383 0.0399666 -1 0 1
144 8 3 0.033922 39.044 6.72122 0.776806 -1 0 1
145 9 1 -0.091211 34.0445 6.14908 21.7718 -1 1 0
146 9 1 -0.050311 35.2457 7.02846 -0.0848518 -1 1 1
147 9 2 -0.174311 34.8966 8.49157 0.432183 -1 1 1
148 9 2 -0.174311 34.891 8.86663 1.71468 -1 1 1
149 9 1 -0.050311 35.284 8.00195 2.90116 -1 1 1
150 9 1 -0.091211 34.1955 8.20694 4.02948 -1 1 1
151 9 3 0.033922 33.2284 6.11918 0.166896 -1 1 1
152 9 3 0.033922 34.4163 5.12841 21.6429 -1 1 0
153 9 3 0.033922 33.6091 6.47541 20.8229 -1 1 0
154 9 3 0.046089 35.8988 6.47986 0.600156 -1 1 1
155 9 3 0.046089 35.8338 7.19074 21.3399 -1 1 0
156 9 4 0.121889 34.4738 9.13701 -0.331092 -1 1 1
157 9 4 0.121889 34.7009 9.92962 1.82384 -1 1 1
158 9 3 0.046089 36.2388 8.46388 3.16894 -1 1 1
159 9 3 0.046089 35.3831 6.93432 2.68448 -1 1 1
160 9 3 0.033922 33.2555 7.79633 3.6494 -1 1 1
161 9 3 0.033922 34.4678 7.7072 4.96366 -1 1 1
162 9 3 0.033922 34.0966 9.2785 4.22597 -1 1 1
163 10 1 -0.091211 9.85455 9.95915 4.23841 0 0 1
164 10 1 -0.050311 9.16897 8.67086 4.26333 0 0 1
165 10 2 -0.174311 10.0024 7.4444 3.96877 0 0 1
166 10 2 -0.174311 9.96832 6.18449 4.59359 0 0 1
167 10 1 -0.050311 8.87719 5.77887 5.51706 0 0 1
168 10 1 -0.091211 8.39053 4.3536 5.18562 0 0 1
169 10 3 0.033922 10.5449 10.1355 5.06846 0 0 1
170 10 3 0.033922 9.13841 10.7858 4.25872 0 0 1
171 10 3 0.033922 10.4816 10.0124 3.34364 0 0 1
172 10 3 0.046089 8.82169 8.45165 5.2772 0 0 1
173 10 3 0.046089 8.32198 8.70466 3.57185 0 0 1
174 10 4 0.121889 10.7562 7.63231 3.21079 0 0 1
175 10 4 0.121889 10.7397 5.45482 4.36868 0 0 1
176 10 3 0.046089 8.05365 6.49582 5.58393 0 0 1
177 10 3 0.046089 9.40302 5.66162 6.46909 0 0 1
178 10 3 0.033922 7.60849 4.305 4.42226 0 0 1
179 10 3 0.033922 9.15871 3.6237 4.91387 0 0 1
180 10 3 0.033922 7.94703 3.90958 6.08159 0 0 1
181 11 1 -0.091211 0.495104 14.7652 16.0723 0 0 0
182 11 1 -0.050311 -0.448472 14.8498 17.2797 0 0 0
183 11 2 -0.174311 -0.219121 16.2962 17.8212 0 0 0
184 11 2 -0.174311 -1.24723 17.2214 18.018 0 0 0
185 11 1 -0.050311 -2.64663 17.0664 17.5183 0 0 0
186 11 1 -0.091211 -3.01528 18.3727 16.7975 0 0 0
187 11 3 0.033922 0.281121 13.822 15.5612 0 0 0
188 11 3 0.033922 1.55845 14.8148 16.3244 0 0 0
189 11 3 0.033922 0.45773 15.607 15.3747 0 0 0
190 11 3 0.046089 -1.42163 14.6314 16.8303 0 0 0
191 11 3 0.046089 -0.241975 14.0614 18.0094 0 0 0
192 11 4 0.121889 0.73786 16.6154 18.2217 0 0 0
193 11 4 0.121889 -0.955649 18.2139 18.3465 0 0 0
194 11 3 0.046089 -3.33101 16.7888 18.3252 0 0 0
195 11 3 0.046089 -2.79122 16.3244 16.7276 0 0 0
196 11 3 0.033922 -2.72956 18.2446 15.7493 0 0 0
197 11 3 0.033922 -4.09276 18.5548 16.7463 0 0 0
198 11 3 0.033922 -2.50436 19.1953 17.3063 0 0 0
199 12 1 -0.091211 5.76805 8.76291 7.74251 0 0 0
200 12 1 -0.050311 4.45835 9.28064 8.22348 0 0 0
201 12 2 -0.174311 3.24933 8.79617 7.4443 0 0 0
202 12 2 -0.174311 2.08994 9.50901 7.06304 0 0 0
203 12 1 -0.050311 1.89845 10.8467 7.63402 0 0 0
204 12 1 -0.091211 0.366702 10.8035 8.02858 0 0 0
205 12 3 0.033922 6.54878 9.23797 8.34371 0 0 0
206 12 3 0.033922 5.86734 9.06485 6.69583 0 0 0
207 12 3 0.033922 5.89435 7.67634 7.73479 0 0 0
208 12 3 0.046089 4.33086 9.10802 9.2961 0 0 0
209 12 3 0.046089 4.5319 10.3593 8.05712 0 0 0
210 12 4 0.121889 3.29863 7.79506 7.02794 0 0 0
211 12 4 0.121889 1.47372 9.08042 6.27907 0 0 0
212 12 3 0.046089 2.05994 11.5455 6.80809 0 0 0
213 12 3 0.046089 2.49689 10.952 8.54364 0 0 0
214 12 3 0.033922 -0.231026 10.7066 7.11756 0 0 0
215 12 3 0.033922 0.158242 9.96561 8.70023 0 0 0
216 12 3 0.033922 0.13269 11.7556 8.51379 0 0 0
217 13 1 -0.091211 43.5706 14.7372 7.71229 -1 0 1
218 13 1 -0.050311 -3.76543 14.6385 7.22997 0 0 1
219 13 2 -0.174311 -2.75477 15.1768 8.20847 0 0 1
220 13 2 -0.174311 -1.39771 14.9551 8.0439 0 0 1
221 13 1 -0.050311 -0.858182 14.2635 6.82969 0 0 1
222 13 1 -0.091211 0.663257 14.2376 6.86534 0 0 1
223 13 3 0.033922 42.8823 14.2505 7.01517 -1 0 1
224 13 3 0.033922 43.3695 15.8093 7.62977 -1 0 1
225 13 3 0.033922 43.391 14.381 8.73081 -1 0 1
226 13 3 0.046089 -3.49824 13.5797 7.16517 0 0 1
227 13 3 0.046089 -3.70022 15.0555 6.22079 0 0 1
228 13 4 0.121889 -3.09338 15.6526 9.12332 0 0 1
229 13 4 0.121889 -0.722539 15.2226 8.85051 0 0 1
230 13 3 0.046089 -1.21337 14.6207 5.85868 0 0 1
231 13 3 0.046089 -1.21066 13.2316 6.91697 0 0 1
232 13 3 0.033922 1.10452 13.8327 7.78071 0 0 1
233 13 3 0.033922 0.954717 13.5845 6.03768 0 0 1
234 13 3 0.033922 1.12092 15.2261 6.76497 0 0 1
235 14 1 -0.091211 14.0081 9.15333 4.90825 0 0 0
236 14 1 -0.050311 14.7907 7.84407 4.76543 0 0 0
237 14 2 -0.174311 15.4489 7.67672 3.333 0 0 0
238 14 2 -0.174311 14.7836 7.16296 2.24391 0 0 0
239 14 1 -0.050311 13.28 6.84622 2.17085 0 0 0
240 14 1 -0.091211 13.007 5.71938 1.16056 0 0 0
241 14 3 0.033922 13.2376 9.1897 4.13258 0 0 0
242 14 3 0.033922 14.6227 10.0378 4.71663 0 0 0
243 14 3 0.033922 13.4372 9.28877 5.83144 0 0 0
244 14 3 0.046089 15.5253 7.72694 5.56753 0 0 0
245 14 3 0.046089 14.0322 7.05902 4.83654 0 0 0
246 14 4 0.121889 16.4649 7.93896 3.0554 0 0 0
247 14 4 0.121889 15.2738 7.04931 1.28226 0 0 0
248 14 3 0.046089 12.815 7.76188 1.79405 0 0 0
249 14 3 0.046089 12.8576 6.52765 3.12828 0 0 0
250 14 3 0.033922 11.9498 5.43866 1.14419 0 0 0
251 14 3 0.033922 13.3804 6.05214 0.187706 0 0 0
252 14 3 0.033922 13.6144 4.86633 1.47675 0 0 0
253 15 1 -0.091211 3.54396 4.61998 0.142224 0 1 1
254 15 1 -0.050311 1.97091 4.4781 -0.0722402 0 1 1
255 15 2 -0.174311 1.2869 5.88117 -0.125799 0 1 1
256 15 2 -0.174311 0.899131 6.61032 0.96966 0 1 1
257 15 1 -0.050311 0.974694 6.22692 2.41747 0 1 1
258 15 1 -0.091211 -0.507853 6.02057 2.89187 0 1 1
259 15 3 0.033922 3.98963 5.18955 21.6543 0 1 0
260 15 3 0.033922 3.99407 3.6244 0.195744 0 1 1
261 15 3 0.033922 3.78229 5.14331 1.07277 0 1 1
262 15 3 0.046089 1.846 4.02269 21.2738 0 1 0
263 15 3 0.046089 1.47492 3.8596 0.681468 0 1 1
264 15 4 0.121889 1.07632 6.38089 21.2668 0 1 0
265 15 4 0.121889 0.667872 7.64755 0.749031 0 1 1
266 15 3 0.046089 1.38096 7.04315 3.02191 0 1 1
267 15 3 0.046089 1.62706 5.34932 2.44781 0 1 1
268 15 3 0.033922 -1.17732 6.83011 2.58669 0 1 1
269 15 3 0.033922 -0.86973 5.10411 2.41672 0 1 1
270 15 3 0.033922 -0.6163 5.87271 3.97027 0 1 1
271 16 1 -0.091211 13.8818 4.39471 9.96771 0 1 0
272 16 1 -0.050311 14.2524 5.12913 8.63327 0 1 0
273 16 2 -0.174311 12.9615 5.47318 7.82468 0 1 0
274 16 2 -0.174311 12.4799 4.68615 6.75228 0 1 0
275 16 1 -0.050311 13.0718 3.38526 6.09365 0 1 0
276 16 1 -0.091211 13.4354 3.77745 4.62488 0 1 0
277 16 3 0.033922 13.5761 3.38482 9.67911 0 1 0
278 16 3 0.033922 13.1359 4.8196 10.6458 0 1 0
279 16 3 0.033922 14.7864 4.17543 10.5424 0 1 0
280 16 3 0.046089 14.8088 6.06016 8.77571 0 1 0
281 16 3 0.046089 14.8467 4.53794 7.93048 0 1 0
282 16 4 0.121889 12.203 6.22619 8.0138 0 1 0
283 16 4 0.121889 11.5211 5.07872 6.42894 0 1 0
284 16 3 0.046089 12.3305 2.58268 6.03828 0 1 0
285 16 3 0.046089 13.9423 2.96953 6.60948 0 1 0
286 16 3 0.033922 13.9467 4.74002 4.5313 0 1 0
287 16 3 0.033922 13.9767 3.0082 4.06643 0 1 0
288 16 3 0.033922 12.4834 3.9335 4.10908 0 1 0
289 17 1 -0.091211 11.1051 9.05518 7.85263 0 0 0
290 17 1 -0.050311 10.6614 10.3187 8.55051 0 0 0
291 17 2 -0.174311 11.5839 10.8245 9.66311 0 0 0
292 17 2 -0.174311 11.8664 12.1651 9.86892 0 0 0
293 17 1 -0.050311 11.4397 13.3 9.03262 0 0 0
294 17 1 -0.091211 10.078 13.752 9.50921 0 0 0
295 17 3 0.033922 10.4556 8.92331 6.98234 0 0 0
296 17 3 0.033922 11.0132 8.17614 8.4972 0 0 0
297 17 3 0.033922 12.1458 9.13562 7.52509 0 0 0
298 17 3 0.046089 10.5354 11.1221 7.81886 0 0 0
299 17 3 0.046089 9.72276 10.2077 9.10132 0 0 0
300 17 4 0.121889 11.9449 10.0416 10.3225 0 0 0
301 17 4 0.121889 12.3596 12.4696 10.7866 0 0 0
302 17 3 0.046089 11.3315 12.9887 7.9896 0 0 0
303 17 3 0.046089 12.1549 14.1275 9.05573 0 0 0
304 17 3 0.033922 9.29459 13.094 9.12207 0 0 0
305 17 3 0.033922 9.92842 13.7799 10.5925 0 0 0
306 17 3 0.033922 9.84687 14.7383 9.09635 0 0 0
307 18 1 -0.091211 32.8203 8.92695 18.7984 -1 0 1
308 18 1 -0.050311 34.121 9.19564 18.1269 -1 0 1
309 18 2 -0.174311 35.0526 8.02663 18.232 -1 0 1
310 18 2 -0.174311 35.9658 7.63845 17.2473 -1 0 1
311 18 1 -0.050311 36.0314 8.17232 15.8333 -1 0 1
312 18 1 -0.091211 36.6082 7.03595 14.974 -1 0 1
313 18 3 0.033922 32.4201 9.91058 19.061 -1 0 1
314 18 3 0.033922 32.9728 8.36613 19.7251 -1 0 1
315 18 3 0.033922 32.1184 8.36789 18.1728 -1 0 1
316 18 3 0.046089 33.9648 9.41879 17.0675 -1 0 1
317 18 3 0.046089 34.4941 10.0457 18.7055 -1 0 1
318 18 4 0.121889 35.0033 7.3132 19.0484 -1 0 1
319 18 4 0.121889 36.4411 6.68544 17.4568 -1 0 1
320 18 3 0.046089 36.6351 9.08046 15.7466 -1 0 1
321 18 3 0.046089 35.0045 8.4667 15.5976 -1 0 1
322 18 3 0.033922 37.5439 6.6469 15.3861 -1 0 1
323 18 3 0.033922 35.9872 6.13874 14.8964 -1 0 1
324 18 3 0.033922 36.7196 7.39155 13.9455 -1 0 1
325 19 1 -0.091211 12.0737 11.4583 21.3328 0 0 -1
326 19 1 -0.050311 10.9349 10.9351 20.4476 0 0 -1
327 19 2 -0.174311 9.82147 10.3021 21.2823 0 0 -1
328 19 2 -0.174311 8.46655 10.6024 21.0837 0 0 -1
329 19 1 -0.050311 7.90388 11.7652 20.2791 0 0 -1
330 19 1 -0.091211 7.49617 11.3552 18.8302 0 0 -1
331 19 3 0.033922 12.861 11.8916 20.7089 0 0 -1
332 19 3 0.033922 12.3763 10.5528 21.8667 0 0 -1
333 19 3 0.033922 11.789 12.2618 -0.314521 0 0 0
334 19 3 0.046089 10.4727 11.696 19.8119 0 0 -1
335 19 3 0.046089 11.1858 10.1126 19.7715 0 0 -1
336 19 4 0.121889 10.1376 9.51967 -0.367926 0 0 0
337 19 4 0.121889 7.81524 9.9221 21.6232 0 0 -1
338 19 3 0.046089 8.63727 12.5742 20.3453 0 0 -1
339 19 3 0.046089 7.03144 12.1806 20.7919 0 0 -1
340 19 3 0.033922 6.46828 10.9849 18.8859 0 0 -1
341 19 3 0.033922 7.60928 12.2544 18.2177 0 0 -1
342 19 3 0.033922 8.14526 10.5942 18.3872 0 0 -1
343 20 1 -0.091211 13.1884 16.4572 7.02014 0 -1 0
344 20 1 -0.050311 12.8172 16.4978 5.58155 0 -1 0
345 20 2 -0.174311 13.2411 17.7244 4.95704 0 -1 0
346 20 2 -0.174311 12.4673 18.6992 4.36088 0 -1 0
347 20 1 -0.050311 10.9923 18.5472 4.0715 0 -1 0
348 20 1 -0.091211 10.4314 19.9473 3.78774 0 -1 0
349 20 3 0.033922 12.575 17.1347 7.62128 0 -1 0
350 20 3 0.033922 14.2446 16.7181 7.13493 0 -1 0
351 20 3 0.033922 12.9385 15.4486 7.36186 0 -1 0
352 20 3 0.046089 13.299 15.6927 5.01912 0 -1 0
353 20 3 0.046089 11.7565 16.2576 5.46342 0 -1 0
354 20 4 0.121889 14.3247 17.7867 4.9708 0 -1 0
355 20 4 0.121889 12.9155 19.5981 3.94942 0 -1 0
356 20 3 0.046089 10.5287 18.2314 5.01064 0 -1 0
357 20 3 0.046089 10.7909 17.8081 3.29064 0 -1 0
358 20 3 0.033922 10.4402 1.80924 4.73675 0 0 0
359 20 3 0.033922 10.9149 1.85338 3.00231 0 0 0
360 20 3 0.033922 9.35777 19.8488 3.60206 0 -1 0
361 21 1 -0.091211 -2.51468 1.8308 21.4765 0 0 0
362 21 1 -0.050311 -1.61221 1.93463 0.335289 0 0 1
363 21 2 -0.174311 -0.815289 19.3565 0.605876 0 -1 1
364 21 2 -0.174311 -1.32522 18.2745 1.35028 0 -1 1
365 21 1 -0.050311 -2.6656 18.2911 2.11463 0 -1 1
366 21 1 -0.091211 -2.35685 18.775 3.59086 0 -1 1
367 21 3 0.033922 -1.98153 1.81551 20.5214 0 0 0
368 21 3 0.033922 -3.1391 2.7281 21.4362 0 0 0
369 21 3 0.033922 -3.03235 19.5579 21.6066 0 -1 0
370 21 3 0.046089 -0.852387 2.71143 0.209055 0 0 1
371 21 3 0.046089 -2.25491 2.16016 1.19128 0 0 1
372 21 4 0.121889 0.127498 19.335 0.0684913 0 -1 1
373 21 4 0.121889 -0.663396 17.4151 1.39047 0 -1 1
374 21 3 0.046089 -3.24114 17.3626 2.17139 0 -1 1
375 21 3 0.046089 -3.3562 19.0502 1.73576 0 -1 1
376 21 3 0.033922 -1.65627 19.605 3.72149 0 -1 1
377 21 3 0.033922 -3.29327 19.2219 3.93742 0 -1 1
378 21 3 0.033922 -2.05361 17.9602 4.25478 0 -1 1
379 22 1 -0.091211 5.07058 17.2672 14.5275 0 -1 0
380 22 1 -0.050311 5.12163 15.7702 14.6638 0 -1 0
381 22 2 -0.174311 6.24975 15.2613 13.7888 0 -1 0
382 22 2 -0.174311 7.2335 14.3077 14.1462 0 -1 0
383 22 1 -0.050311 7.29824 13.3516 15.3009 0 -1 0
384 22 1 -0.091211 8.09692 12.1339 14.9432 0 -1 0
385 22 3 0.033922 4.2905 17.7073 15.1555 0 -1 0
386 22 3 0.033922 4.82437 17.6258 13.5238 0 -1 0
387 22 3 0.033922 6.07971 17.5787 14.8127 0 -1 0
388 22 3 0.046089 5.29669 15.4129 15.6828 0 -1 0
389 22 3 0.046089 4.25833 15.2686 14.2168 0 -1 0
390 22 4 0.121889 6.18249 15.675 12.7877 0 -1 0
391 22 4 0.121889 7.88645 14.0035 13.3343 0 -1 0
392 22 3 0.046089 6.3129 13.0088 15.6301 0 -1 0
393 22 3 0.046089 7.74035 13.8801 16.1505 0 -1 0
394 22 3 0.033922 9.05374 12.3766 14.4717 0 -1 0
395 22 3 0.033922 8.47982 11.6897 15.8666 0 -1 0
396 22 3 0.033922 7.63064 11.4036 14.2755 0 -1 0
397 23 1 -0.091211 -0.254002 10.0476 3.72734 0 0 0
398 23 1 -0.050311 -1.66155 10.4766 4.12503 0 0 0
399 23 2 -0.174311 -2.26025 9.46884 5.15702 0 0 0
400 23 2 -0.174311 -3.58609 9.32839 5.44756 0 0 0
401 23 1 -0.050311 -4.80142 10.2007 4.91314 0 0 0
402 23 1 -0.091211 42.7824 9.28416 4.86596 -1 0 0
403 23 3 0.033922 -0.122936 9.02677 3.35679 0 0 0
404 23 3 0.033922 0.334128 10.2318 4.63111 0 0 0
405 23 3 0.033922 0.0743096 10.8038 3.00825 0 0 0
406 23 3 0.046089 -1.48989 11.4781 4.53011 0 0 0
407 23 3 0.046089 -2.28769 10.4994 3.22834 0 0 0
408 23 4 0.121889 -1.58995 8.82767 5.72063 0 0 0
409 23 4 0.121889 -3.78856 8.48036 6.09397 0 0 0
410 23 3 0.046089 -4.65261 10.6961 3.94931 0 0 0
411 23 3 0.046089 -4.96363 10.9816 5.66175 0 0 0
412 23 3 0.033922 42.4894 8.93422 5.86009 -1 0 0
413 23 3 0.033922 41.9372 9.90028 4.54532 -1 0 0
414 23 3 0.033922 42.9207 8.36434 4.29027 -1 0 0
415 24 1 -0.091211 3.32423 13.5161 3.00162 0 0 0
416 24 1 -0.050311 3.78517 14.7234 2.2046 0 0 0
417 24 2 -0.174311 3.59181 15.9804 2.96971 0 0 0
418 24 2 -0.174311 3.65351 17.2051 2.45273 0 0 0
419 24 1 -0.050311 4.08201 17.6431 1.08667 0 0 0
420 24 1 -0.091211 2.87481 17.8374 0.224558 0 0 0
421 24 3 0.033922 3.73348 13.6217 4.01055 0 0 0
422 24 3 0.033922 3.65393 12.652 2.41742 0 0 0
423 24 3 0.033922 2.23448 13.4673 3.08417 0 0 0
424 24 3 0.046089 4.81635 14.6723 1.84293 0 0 0
425 24 3 0.046089 3.2971 14.6875 1.22629 0 0 0
426 24 4 0.121889 3.18756 15.8793 3.97188 0 0 0
427 24 4 0.121889 3.42837 18.0277 3.12404 0 0 0
428 24 3 0.046089 4.64686 16.8208 0.637983 0 0 0
429 24 3 0.046089 4.73849 18.5151 1.16001 0 0 0
430 24 3 0.033922 2.33015 16.8937 0.127827 0 0 0
431 24 3 0.033922 2.20098 18.5835 0.655878 0 0 0
432 24 3 0.033922 3.17149 18.1208 21.5433 0 0 -1
433 25 1 -0.091211 0.0879296 7.99973 17.0382 0 0 0
434 25 1 -0.050311 -0.396608 6.92089 17.9809 0 0 0
435 25 2 -0.174311 0.78616 6.13882 18.6481 0 0 0
436 25 2 -0.174311 0.879306 4.77548 18.6207 0 0 0
437 25 1 -0.050311 -0.170922 3.79466 18.1581 0 0 0
438 25 1 -0.091211 0.307487 2.38287 18.4513 0 0 0
439 25 3 0.033922 0.654698 8.85676 17.4136 0 0 0
440 25 3 0.033922 -0.817734 8.46801 16.6418 0 0 0
441 25 3 0.033922 0.77704 7.63464 16.2711 0 0 0
442 25 3 0.046089 -1.02754 7.2853 18.7969 0 0 0
443 25 3 0.046089 -1.04456 6.22069 17.4456 0 0 0
444 25 4 0.121889 1.49438 6.79233 19.1475 0 0 0
445 25 4 0.121889 1.73138 4.2784 19.0735 0 0 0
446 25 3 0.046089 -0.244867 3.81066 17.0668 0 0 0
447 25 3 0.046089 -1.15628 3.99026 18.5912 0 0 0
448 25 3 0.033922 0.497421 2.16507 19.5064 0 0 0
449 25 3 0.033922 -0.504158 1.71036 18.1587 0 0 0
450 25 3 0.033922 1.21479 2.01961 17.9599 0 0 0
451 26 1 -0.091211 -0.522505 13.2774 20.8606 0 -1 0
452 26 1 -0.050311 -0.868667 13.8076 -0.0724813 0 -1 1
453 26 2 -0.174311 -2.08783 14.6472 0.0164363 0 -1 1
454 26 2 -0.174311 -3.14068 14.4994 0.916692 0 -1 1
455 26 1 -0.050311 -3.24954 13.4995 2.0595 0 -1 1
456 26 1 -0.091211 -4.13392 14.0353 3.18489 0 -1 1
457 26 3 0.033922 -1.30083 12.6046 20.4888 0 -1 0
458 26 3 0.033922 0.441405 12.7625 20.8105 0 -1 0
459 26 3 0.033922 -0.437182 14.146 20.2012 0 -1 0
460 26 3 0.046089 -0.917186 12.9166 0.56034 0 -1 1
461 26 3 0.046089 -0.0801289 14.4818 0.274297 0 -1 1
462 26 4 0.121889 -2.11173 15.5525 21.751 0 -1 0
463 26 4 0.121889 -3.88298 15.2871 0.998796 0 -1 1
464 26 3 0.046089 -2.23669 13.4128 2.46367 0 -1 1
465 26 3 0.046089 -3.62934 12.5441 1.68584 0 -1 1
466 26 3 0.033922 -4.15663 13.384 4.06344 0 -1 1
467 26 3 0.033922 -3.89764 15.0809 3.40325 0 -1 1
468 26 3 0.033922 43.6089 14.1478 2.90424 -1 -1 1
469 27 1 -0.091211 14.7204 14.0208 16.3029 0 0 -1
470 27 1 -0.050311 16.2591 14.0207 15.8387 0 0 -1
471 27 2 -0.174311 17.0819 14.7657 16.8364 0 0 -1
472 27 2 -0.174311 17.6234 14.1572 17.9542 0 0 -1
473 27 1 -0.050311 17.3127 12.6882 18.3725 0 0 -1
474 27 1 -0.091211 16.7278 12.6681 19.7621 0 0 -1
475 27 3 0.033922 14.0803 13.8727 15.4283 0 0 -1
476 27 3 0.033922 14.3268 14.9184 16.7886 0 0 -1
477 27 3 0.033922 14.4736 13.2447 17.0332 0 0 -1
478 27 3 0.046089 16.541 12.9842 15.6315 0 0 -1
479 27 3 0.046089 16.322 14.4782 14.8471 0 0 -1
480 27 4 0.121889 17.2312 15.7793 16.4782 0 0 -1
481 27 4 0.121889 18.3789 14.5461 18.6294 0 0 -1
482 27 3 0.046089 18.1591 11.9992 18.2963 0 0 -1
483 27 3 0.046089 16.5702 12.1927 17.7402 0 0 -1
484 27 3 0.033922 15.7094 13.055 19.6631 0 0 -1
485 27 3 0.033922 16.7328 11.6525 20.1685 0 0 -1
486 27 3 0.033922 17.2332 13.2962 20.5015 0 0 -1
487 28 1 -0.091211 5.47356 18.0222 18.7307 0 -1 -1
488 28 1 -0.050311 6.72376 17.1385 19.1415 0 -1 -1
489 28 2 -0.174311 7.9521 17.9565 19.5661 0 -1 -1
490 28 2 -0.174311 8.66945 17.7454 20.7686 0 -1 -1
491 28 1 -0.050311 8.37964 16.6299 21.728 0 -1 -1
492 28 1 -0.091211 9.33288 16.5541 0.532875 0 -1 0
493 28 3 0.033922 4.7306 17.3766 18.2533 0 -1 -1
494 28 3 0.033922 5.69959 18.7278 17.9259 0 -1 -1
495 28 3 0.033922 5.07485 18.6162 19.5582 0 -1 -1
496 28 3 0.046089 6.40558 16.6049 20.0418 0 -1 -1
497 28 3 0.046089 7.03997 16.461 18.343 0 -1 -1
498 28 4 0.121889 8.26727 18.701 18.842 0 -1 -1
499 28 4 0.121889 9.46157 18.4745 20.9065 0 -1 -1
500 28 3 0.046089 8.39376 15.7081 21.1392 0 -1 -1
501 28 3 0.046089 7.38374 16.7591 -0.170949 0 -1 0
502 28 3 0.033922 9.10008 15.7268 1.20961 0 -1 0
503 28 3 0.033922 10.3379 16.261 0.215336 0 -1 0
504 28 3 0.033922 9.43958 17.5051 1.06283 0 -1 0
505 29 1 -0.091211 3.73462 10.2357 4.31427 0 0 0
506 29 1 -0.050311 3.79415 8.6443 3.93643 0 0 0
507 29 2 -0.174311 5.18571 8.30756 3.59833 0 0 0
508 29 2 -0.174311 5.70805 7.00747 3.65885 0 0 0
509 29 1 -0.050311 4.87759 5.75683 3.89443 0 0 0
510 29 1 -0.091211 4.91639 5.38974 5.41081 0 0 0
511 29 3 0.033922 4.21252 10.8286 3.52895 0 0 0
512 29 3 0.033922 4.2192 10.3894 5.28286 0 0 0
513 29 3 0.033922 2.68576 10.4935 4.48808 0 0 0
514 29 3 0.046089 3.37698 8.01554 4.72842 0 0 0
515 29 3 0.046089 3.1304 8.4408 3.09106 0 0 0
516 29 4 0.121889 5.89442 9.1277 3.54193 0 0 0
517 29 4 0.121889 6.74625 6.88426 3.36714 0 0 0
518 29 3 0.046089 5.29827 4.9295 3.31548 0 0 0
519 29 3 0.046089 3.8847 6.0176 3.51643 0 0 0
520 29 3 0.033922 5.96788 5.45757 5.70493 0 0 0
521 29 3 0.033922 4.35409 6.14882 5.96241 0 0 0
522 29 3 0.033922 4.485 4.41235 5.6459 0 0 0
523 30 1 -0.091211 2.96887 17.972 7.39149 0 0 1
524 30 1 -0.050311 1.47209 18.2799 7.06051 0 0 1
525 30 2 -0.174311 1.12206 17.9882 5.62768 0 0 1
526 30 2 -0.174311 1.24864 18.935 4.60524 0 0 1
527 30 1 -0.050311 1.68121 1.66531 4.8297 0 1 1
528 30 1 -0.091211 1.97187 2.29687 3.43364 0 1 1
529 30 3 0.033922 3.60884 18.8321 7.17403 0 0 1
530 30 3 0.033922 3.35959 17.0963 6.86504 0 0 1
531 30 3 0.033922 2.96187 17.7818 8.46869 0 0 1
532 30 3 0.046089 0.808524 17.6366 7.6457 0 0 1
533 30 3 0.046089 1.26938 19.3289 7.29537 0 0 1
534 30 4 0.121889 0.817454 16.9907 5.32735 0 0 1
535 30 4 0.121889 1.00273 18.6455 3.58851 0 0 1
536 30 3 0.046089 2.61532 1.62112 5.39731 0 1 1
537 30 3 0.046089 0.887386 2.16797 5.38993 0 1 1
538 30 3 0.033922 2.47287 3.26647 3.50806 0 1 1
539 30 3 0.033922 2.64204 1.5853 2.94251 0 1 1
540 30 3 0.033922 1.08107 2.34268 2.80034 0 1 1
541 31 1 -0.091211 17.5841 17.3097 0.473571 0 0 1
542 31 1 -0.050311 19.049 17.533 0.645863 0 0 1
543 31 2 -0.174311 19.7086 17.7425 21.6139 0 0 0
544 31 2 -0.174311 20.6581 16.9409 20.9381 0 0 0
545 31 1 -0.050311 21.1475 15.5174 21.3311 0 0 0
546 31 1 -0.091211 22.579 15.7253 21.7643 0 0 0
547 31 3 0.033922 17.0805 17.4327 1.43686 0 0 1
548 31 3 0.033922 17.3669 16.3115 0.0824936 0 0 1
549 31 3 0.033922 17.148 18.0445 -0.209478 0 0 1
550 31 3 0.046089 19.2925 18.4099 1.25278 0 0 1
551 31 3 0.046089 19.4903 16.7445 1.26253 0 0 1
552 31 4 0.121889 19.2286 18.5071 21.0113 0 0 0
553 31 4 0.121889 21.0431 17.2836 19.9829 0 0 0
554 31 3 0.046089 21.1344 14.8822 20.4405 0 0 0
555 31 3 0.046089 20.4285 15.1891 -0.245479 0 0 1
556 31 3 0.033922 23.162 16.2247 20.985 0 0 0
557 31 3 0.033922 22.6284 16.2902 0.366996 0 0 1
558 31 3 0.033922 23.008 14.7345 21.9399 0 0 0
559 32 1 -0.091211 16.6866 18.477 18.8751 0 0 -1
560 32 1 -0.050311 15.8368 19.4243 19.7107 0 0 -1
561 32 2 -0.174311 14.7916 18.7448 20.5894 0 0 -1
562 32 2 -0.174311 13.6429 19.3487 20.9545 0 0 -1
563 32 1 -0.050311 13.2227 2.08596 20.553 0 1 -1
564 32 1 -0.091211 12.235 2.63251 21.5743 0 1 -1
565 32 3 0.033922 17.0714 18.8387 17.9171 0 0 -1
566 32 3 0.033922 16.1245 17.5624 18.6652 0 0 -1
567 32 3 0.033922 17.5838 18.15 19.4087 0 0 -1
568 32 3 0.046089 16.4685 20.0446 20.3533 0 0 -1
569 32 3 0.046089 15.34 1.46493 19.0568 0 1 -1
570 32 4 0.121889 14.9792 17.6835 20.7179 0 0 -1
571 32 4 0.121889 12.9539 18.777 21.5681 0 0 -1
572 32 3 0.046089 12.8553 2.13115 19.5237 0 1 -1
573 32 3 0.046089 14.1092 2.7266 20.5723 0 1 -1
574 32 3 0.033922 12.0008 3.69499 21.4605 0 1 -1
575 32 3 0.033922 11.2458 2.1786 21.464 0 1 -1
576 32 3 0.033922 12.5569 2.45829 0.27236 0 1 0
577 33 1 -0.091211 14.9556 11.1852 12.3247 0 0 0
578 33 1 -0.050311 15.5699 10.6896 13.6099 0 0 0
579 33 2 -0.174311 16.5967 9.60822 13.5357 0 0 0
580 33 2 -0.174311 17.6688 9.38886 14.4376 0 0 0
581 33 1 -0.050311 17.924 10.2738 15.5835 0 0 0
582 33 1 -0.091211 18.8093 9.59636 16.6233 0 0 0
583 33 3 0.033922 14.5729 10.2893 11.8271 0 0 0
584 33 3 0.033922 15.7924 11.5606 11.7285 0 0 0
585 33 3 0.033922 14.2675 11.9651 12.6639 0 0 0
586 33 3 0.046089 16.0225 11.5938 14.0274 0 0 0
587 33 3 0.046089 14.7608 10.3498 14.263 0 0 0
588 33 4 0.121889 16.4296 8.88579 12.7431 0 0 0
589 33 4 0.121889 18.2588 8.47801 14.455 0 0 0
590 33 3 0.046089 16.9584 10.5267 16.031 0 0 0
591 33 3 0.046089 18.4307 11.1757 15.2279 0 0 0
592 33 3 0.033922 19.7555 9.43644 16.0982 0 0 0
593 33 3 0.033922 18.9619 10.2257 17.5049 0 0 0
594 33 3 0.033922 18.4387 8.62631 16.9673 0 0 0
595 34 1 -0.091211 13.3501 18.7913 10.1903 0 0 0
596 34 1 -0.050311 14.7231 19.0037 9.71053 0 0 0
597 34 2 -0.174311 15.7165 19.1231 10.8911 0 0 0
598 34 2 -0.174311 16.2688 17.9591 11.4587 0 0 0
599 34 1 -0.050311 16.045 16.5466 10.9593 0 0 0
600 34 1 -0.091211 16.0034 15.5791 12.1933 0 0 0
601 34 3 0.033922 12.9938 19.6692 10.7371 0 0 0
602 34 3 0.033922 13.2884 17.8896 10.8065 0 0 0
603 34 3 0.033922 12.6465 18.7147 9.35614 0 0 0
604 34 3 0.046089 15.027 18.2062 9.02629 0 0 0
605 34 3 0.046089 14.7901 19.9736 9.209 0 0 0
606 34 4 0.121889 15.8871 20.0528 11.4245 0 0 0
607 34 4 0.121889 16.847 17.9625 12.3773 0 0 0
608 34 3 0.046089 16.8695 16.3571 10.2658 0 0 0
609 34 3 0.046089 15.1215 16.5057 10.3744 0 0 0
610 34 3 0.033922 16.8873 15.7527 12.814 0 0 0
611 34 3 0.033922 15.0822 15.7754 12.7497 0 0 0
612 34 3 0.033922 16.0988 14.517 11.9495 0 0 0
613 35 1 -0.091211 36.8398 14.7699 0.698652 -1 0 1