ITEM: TIMESTEP
35600
ITEM: NUMBER OF ATOMS
1800
ITEM: BOX BOUNDS pp pp pp
-5.7691419281227851e-01 3.9384929692812172e+01
-4.4237921873992647e-01 2.2051034718740148e+01
-1.0251018125205622e+00 2.2278835312520485e+01
ITEM: ATOMS id mol type q x y z ix iy iz
1 1 1 -0.091211 8.36454 16.5458 7.7158 0 -1 0
2 1 1 -0.050311 6.951 16.9785 7.97782 0 -1 0
3 1 2 -0.174311 6.55203 18.0698 6.98876 0 -1 0
4 1 2 -0.174311 5.30941 18.6247 6.91395 0 -1 0
5 1 1 -0.050311 4.18178 18.1996 7.88221 0 -1 0
6 1 1 -0.091211 3.15061 19.3022 8.19321 0 -1 0
7 1 3 0.033922 8.51316 16.2142 6.68398 0 -1 0
8 1 3 0.033922 8.61528 15.7221 8.39058 0 -1 0
9 1 3 0.033922 9.07386 17.3518 7.92496 0 -1 0
10 1 3 0.046089 6.26806 16.1336 7.84965 0 -1 0
11 1 3 0.046089 6.9769 17.4336 8.97225 0 -1 0
12 1 4 0.121889 7.26455 18.4265 6.25178 0 -1 0
13 1 4 0.121889 5.07053 19.3559 6.1482 0 -1 0
14 1 3 0.046089 4.52112 17.8119 8.84718 0 -1 0
15 1 3 0.046089 3.67772 17.3313 7.44791 0 -1 0
16 1 3 0.033922 2.43522 18.8218 8.8671 0 -1 0
17 1 3 0.033922 3.62253 20.1758 8.65225 0 -1 0
18 1 3 0.033922 2.64853 19.6181 7.27412 0 -1 0
19 2 1 -0.091211 11.121 0.435105 16.936 0 0 0
20 2 1 -0.050311 10.5755 1.75979 16.5011 0 0 0
21 2 2 -0.174311 10.3792 1.6427 14.9361 0 0 0
22 2 2 -0.174311 11.0136 2.48893 14.0089 0 0 0
23 2 1 -0.050311 12.0536 3.55209 14.3478 0 0 0
24 2 1 -0.091211 13.0391 3.71214 13.2193 0 0 0
25 2 3 0.033922 11.961 0.247375 16.2609 0 0 0
26 2 3 0.033922 10.3819 -0.351776 16.7597 0 0 0
27 2 3 0.033922 11.5023 0.37094 17.9594 0 0 0
28 2 3 0.046089 9.65017 2.07358 16.993 0 0 0
29 2 3 0.046089 11.3935 2.44306 16.7471 0 0 0
30 2 4 0.121889 9.65697 0.95634 14.5057 0 0 0
31 2 4 0.121889 10.9423 2.273 12.9476 0 0 0
32 2 3 0.046089 12.5407 3.17362 15.2512 0 0 0
33 2 3 0.046089 11.4892 4.46371 14.5646 0 0 0
34 2 3 0.033922 13.7741 2.90278 13.1825 0 0 0
35 2 3 0.033922 12.5707 3.78057 12.2331 0 0 0
36 2 3 0.033922 13.6199 4.63535 13.3025 0 0 0
37 3 1 -0.091211 5.99404 9.00872 7.94119 0 0 0
38 3 1 -0.050311 5.65413 9.52819 9.33828 0 0 0
39 3 2 -0.174311 4.18885 9.90855 9.42608 0 0 0
40 3 2 -0.174311 3.51701 9.95957 10.6316 0 0 0
41 3 1 -0.050311 4.18178 9.7284 11.9842 0 0 0
42 3 1 -0.091211 3.29884 8.85203 12.9279 0 0 0
43 3 3 0.033922 5.28534 8.22019 7.67177 0 0 0
44 3 3 0.033922 6.95465 8.50549 8.08476 0 0 0
45 3 3 0.033922 6.11346 9.80134 7.19678 0 0 0
46 3 3 0.046089 5.819 8.73763 10.0762 0 0 0
47 3 3 0.046089 6.26314 10.3791 9.6572 0 0 0
48 3 4 0.121889 3.58369 10.0926 8.54406 0 0 0
49 3 4 0.121889 2.45284 10.1728 10.6406 0 0 0
50 3 3 0.046089 4.25246 10.7284 12.422 0 0 0
51 3 3 0.046089 5.15392 9.22701 11.9712 0 0 0
52 3 3 0.033922 3.71562 8.8238 13.9389 0 0 0
53 3 3 0.033922 2.31144 9.29528 13.0866 0 0 0
54 3 3 0.033922 3.25917 7.87532 12.4368 0 0 0
55 4 1 -0.091211 2.13038 -0.2868 5.22905 0 0 0
56 4 1 -0.050311 1.6879 21.3133 4.07719 0 -1 0
57 4 2 -0.174311 2.7978 21.2593 3.09955 0 -1 0
58 4 2 -0.174311 3.1232 20.3139 2.23096 0 -1 0
59 4 1 -0.050311 2.22231 19.1127 1.85153 0 -1 0
60 4 1 -0.091211 1.9724 19.1402 0.350671 0 -1 0
61 4 3 0.033922 2.99489 21.7469 5.7168 0 -1 0
62 4 3 0.033922 1.34133 -0.115078 5.96698 0 0 0
63 4 3 0.033922 2.3762 0.686054 4.79344 0 0 0
64 4 3 0.046089 1.41544 20.3234 4.45468 0 -1 0
65 4 3 0.046089 0.799833 21.6432 3.53028 0 -1 0
66 4 4 0.121889 3.40989 -0.337865 3.09254 0 0 0
67 4 4 0.121889 4.02774 20.4934 1.65859 0 -1 0
68 4 3 0.046089 1.28737 19.3441 2.37017 0 -1 0
69 4 3 0.046089 2.5308 18.1038 2.1407 0 -1 0
70 4 3 0.033922 1.44214 18.2683 -0.0435124 0 -1 0
71 4 3 0.033922 1.42079 20.0482 0.0902956 0 -1 0
72 4 3 0.033922 2.96285 19.2182 -0.107071 0 -1 0
73 5 1 -0.091211 39.1594 1.80214 4.94138 -1 0 0
74 5 1 -0.050311 37.8851 2.6315 4.95843 -1 0 0
75 5 2 -0.174311 37.6933 3.3531 6.29125 -1 0 0
76 5 2 -0.174311 37.2635 4.70482 6.26518 -1 0 0
77 5 1 -0.050311 36.7038 5.52521 5.04011 -1 0 0
78 5 1 -0.091211 35.5814 6.49276 5.42627 -1 0 0
79 5 3 0.033922 39.448 1.56927 3.91222 -1 0 0
80 5 3 0.033922 39.0825 0.927006 5.59319 -1 0 0
81 5 3 0.033922 0.114222 2.27279 5.30871 0 0 0
82 5 3 0.046089 37.9506 3.30462 4.09862 -1 0 0
83 5 3 0.046089 37.0316 1.95507 4.85512 -1 0 0
84 5 4 0.121889 37.9036 2.8657 7.23795 -1 0 0
85 5 4 0.121889 37.2059 5.18387 7.23741 -1 0 0
86 5 3 0.046089 36.323 4.77087 4.34542 -1 0 0
87 5 3 0.046089 37.4564 6.05417 4.4482 -1 0 0
88 5 3 0.033922 35.0915 6.80848 4.50057 -1 0 0
89 5 3 0.033922 34.8593 6.06668 6.12885 -1 0 0
90 5 3 0.033922 35.9926 7.35568 5.95819 -1 0 0
91 6 1 -0.091211 8.23305 0.673553 1.24 0 0 1
92 6 1 -0.050311 8.03034 1.36868 -0.0733795 0 0 1
93 6 2 -0.174311 9.19557 1.3073 -0.988349 0 0 1
94 6 2 -0.174311 9.06089 1.71225 21.0635 0 0 0
95 6 1 -0.050311 7.81334 2.27266 20.4355 0 0 0
96 6 1 -0.091211 7.55075 1.32412 19.2864 0 0 0
97 6 3 0.033922 8.9726 1.20302 1.84775 0 0 1
98 6 3 0.033922 8.46166 -0.384586 1.08285 0 0 1
99 6 3 0.033922 7.27517 0.756296 1.76179 0 0 1
100 6 3 0.046089 7.11444 0.960679 -0.510756 0 0 1
101 6 3 0.046089 7.89414 2.44383 0.0753389 0 0 1
102 6 4 0.121889 10.174 0.895254 -0.762698 0 0 1
103 6 4 0.121889 9.8545 1.56829 20.3372 0 0 0
104 6 3 0.046089 7.99136 3.27494 20.0351 0 0 0
105 6 3 0.046089 6.92442 2.40629 21.0589 0 0 0
106 6 3 0.033922 6.64476 1.69095 18.7953 0 0 0
107 6 3 0.033922 8.37678 1.33305 18.5693 0 0 0
108 6 3 0.033922 7.31284 0.310897 19.6232 0 0 0
109 7 1 -0.091211 36.9665 15.6617 8.587 -1 0 0
110 7 1 -0.050311 37.9184 15.3903 7.44869 -1 0 0
111 7 2 -0.174311 39.2898 15.9109 7.79867 -1 0 0
112 7 2 -0.174311 0.293684 16.4098 6.96067 0 0 0
113 7 1 -0.050311 0.135391 16.6369 5.46752 0 0 0
114 7 1 -0.091211 1.55556 16.8248 4.81691 0 0 0
115 7 3 0.033922 36.7651 16.7311 8.69881 -1 0 0
116 7 3 0.033922 37.2476 15.185 9.53064 -1 0 0
117 7 3 0.033922 36.0644 15.1488 8.24075 -1 0 0
118 7 3 0.046089 37.8957 14.3067 7.30081 -1 0 0
119 7 3 0.046089 37.5628 15.9857 6.6027 -1 0 0
120 7 4 0.121889 -0.450052 15.7581 8.85006 0 0 0
121 7 4 0.121889 1.174 16.7923 7.46737 0 0 0
122 7 3 0.046089 -0.479161 17.5396 5.40293 0 0 0
123 7 3 0.046089 -0.269837 15.7544 4.96389 0 0 0
124 7 3 0.033922 2.11465 15.9136 5.04863 0 0 0
125 7 3 0.033922 1.29813 16.8596 3.75428 0 0 0
126 7 3 0.033922 2.16518 17.6339 5.22957 0 0 0
127 8 1 -0.091211 4.1988 5.60714 18.0609 0 0 0
128 8 1 -0.050311 4.01069 5.39068 16.5591 0 0 0
129 8 2 -0.174311 4.92674 6.28601 15.7674 0 0 0
130 8 2 -0.174311 6.17357 5.99457 15.3019 0 0 0
131 8 1 -0.050311 6.87066 4.72506 15.6542 0 0 0
132 8 1 -0.091211 8.35561 5.13841 15.8284 0 0 0
133 8 3 0.033922 3.71983 6.56454 18.2858 0 0 0
134 8 3 0.033922 5.25218 5.69636 18.3421 0 0 0
135 8 3 0.033922 3.67851 4.86806 18.6771 0 0 0
136 8 3 0.046089 4.20452 4.32315 16.4197 0 0 0
137 8 3 0.046089 2.97962 5.66477 16.3174 0 0 0
138 8 4 0.121889 4.51108 7.26273 15.5411 0 0 0
139 8 4 0.121889 6.71224 6.73764 14.7225 0 0 0
140 8 3 0.046089 6.77283 3.96198 14.8766 0 0 0
141 8 3 0.046089 6.47544 4.28953 16.5766 0 0 0
142 8 3 0.033922 8.93228 4.38393 16.3714 0 0 0
143 8 3 0.033922 8.89708 5.3114 14.8938 0 0 0
144 8 3 0.033922 8.39494 6.03387 16.4555 0 0 0
145 9 1 -0.091211 0.395058 8.6636 20.0362 0 0 0
146 9 1 -0.050311 -0.488314 9.31712 21.06 0 0 0
147 9 2 -0.174311 -0.108403 10.7899 21.1824 0 0 0
148 9 2 -0.174311 -0.530819 11.5523 22.2142 0 0 0
149 9 1 -0.050311 38.4325 11.1996 -0.00202252 -1 0 1
150 9 1 -0.091211 37.6783 12.4537 0.507345 -1 0 1
151 9 3 0.033922 0.0711811 9.01943 19.0538 0 0 0
152 9 3 0.033922 0.28836 7.57673 20.099 0 0 0
153 9 3 0.033922 1.43676 8.95784 20.1941 0 0 0
154 9 3 0.046089 38.3987 9.20406 20.8912 -1 0 0
155 9 3 0.046089 -0.355916 8.79393 22.0115 0 0 0
156 9 4 0.121889 0.66016 11.2097 20.5412 0 0 0
157 9 4 0.121889 -0.227916 12.5932 -1.03869 0 0 1
158 9 3 0.046089 38.9184 10.6519 0.810812 -1 0 1
159 9 3 0.046089 37.6963 10.5823 -0.525017 -1 0 1
160 9 3 0.033922 37.5958 13.1695 -0.315775 -1 0 1
161 9 3 0.033922 36.6937 12.0988 0.825817 -1 0 1
162 9 3 0.033922 38.1757 12.9378 1.35283 -1 0 1
163 10 1 -0.091211 12.4829 10.8929 10.0672 0 0 1
164 10 1 -0.050311 12.7503 9.54482 9.34137 0 0 1
165 10 2 -0.174311 11.5884 8.57617 9.29429 0 0 1
166 10 2 -0.174311 11.5174 7.61629 8.27839 0 0 1
167 10 1 -0.050311 12.7108 7.20296 7.43893 0 0 1
168 10 1 -0.091211 12.4484 5.70815 6.95776 0 0 1
169 10 3 0.033922 11.6974 11.4947 9.60077 0 0 1
170 10 3 0.033922 13.385 11.5057 9.98252 0 0 1
171 10 3 0.033922 12.3235 10.6969 11.1315 0 0 1
172 10 3 0.046089 13.0113 9.79618 8.3092 0 0 1
173 10 3 0.046089 13.6256 9.0519 9.7744 0 0 1
174 10 4 0.121889 10.6295 8.80052 9.75061 0 0 1
175 10 4 0.121889 10.5999 7.04373 8.18689 0 0 1
176 10 3 0.046089 13.6767 7.41132 7.90816 0 0 1
177 10 3 0.046089 12.6816 7.91313 6.60739 0 0 1
178 10 3 0.033922 13.2506 5.31293 6.3278 0 0 1
179 10 3 0.033922 12.543 5.14953 7.89352 0 0 1
180 10 3 0.033922 11.4604 5.57149 6.50848 0 0 1
181 11 1 -0.091211 36.3437 13.6943 3.94797 -1 0 0
182 11 1 -0.050311 35.2953 14.6156 4.50132 -1 0 0
183 11 2 -0.174311 33.9051 14.0272 4.40841 -1 0 0
184 11 2 -0.174311 33.3506 13.3365 5.47435 -1 0 0
185 11 1 -0.050311 33.8973 13.163 6.81961 -1 0 0
186 11 1 -0.091211 33.2431 12.0245 7.59987 -1 0 0
187 11 3 0.033922 36.2798 12.6854 4.36605 -1 0 0
188 11 3 0.033922 37.3128 14.0434 4.31603 -1 0 0
189 11 3 0.033922 36.4081 13.7331 2.85664 -1 0 0
190 11 3 0.046089 35.473 14.9338 5.53275 -1 0 0
191 11 3 0.046089 35.4717 15.4804 3.85509 -1 0 0
192 11 4 0.121889 33.4065 14.0651 3.4451 -1 0 0
193 11 4 0.121889 32.3632 12.9284 5.28305 -1 0 0
194 11 3 0.046089 33.794 14.0583 7.4397 -1 0 0
195 11 3 0.046089 34.9701 12.9825 6.70481 -1 0 0
196 11 3 0.033922 33.668 11.8519 8.59299 -1 0 0
197 11 3 0.033922 32.1613 12.1867 7.61004 -1 0 0
198 11 3 0.033922 33.4372 11.0714 7.09944 -1 0 0
199 12 1 -0.091211 5.51562 16.3166 3.02891 0 0 0
200 12 1 -0.050311 5.93134 15.1632 3.93598 0 0 0
201 12 2 -0.174311 5.06239 15.1306 5.15152 0 0 0
202 12 2 -0.174311 4.53408 13.9967 5.73363 0 0 0
203 12 1 -0.050311 4.70529 12.546 5.33974 0 0 0
204 12 1 -0.091211 3.44732 11.7607 5.39722 0 0 0
205 12 3 0.033922 5.70623 17.273 3.52439 0 0 0
206 12 3 0.033922 4.45906 16.1859 2.77744 0 0 0
207 12 3 0.033922 5.97143 16.3496 2.03503 0 0 0
208 12 3 0.046089 5.95867 14.2718 3.30258 0 0 0
209 12 3 0.046089 6.92606 15.2453 4.38364 0 0 0
210 12 4 0.121889 4.82633 16.1095 5.5565 0 0 0
211 12 4 0.121889 3.86519 14.1138 6.58034 0 0 0
212 12 3 0.046089 5.38478 12.0699 6.05262 0 0 0
213 12 3 0.046089 5.18252 12.4099 4.36488 0 0 0
214 12 3 0.033922 2.62415 12.3193 4.94237 0 0 0
215 12 3 0.033922 3.5906 10.8114 4.87282 0 0 0
216 12 3 0.033922 3.20395 11.3993 6.40064 0 0 0
217 13 1 -0.091211 10.0631 13.0575 11.622 0 0 0
218 13 1 -0.050311 8.78006 13.6046 12.1033 0 0 0
219 13 2 -0.174311 8.94065 14.8238 12.9967 0 0 0
220 13 2 -0.174311 7.96289 15.5559 13.6146 0 0 0
221 13 1 -0.050311 6.47475 15.2402 13.54 0 0 0
222 13 1 -0.091211 5.78493 16.6663 13.5335 0 0 0
223 13 3 0.033922 10.5333 12.5735 12.4829 0 0 0
224 13 3 0.033922 10.6732 13.8637 11.2043 0 0 0
225 13 3 0.033922 9.89718 12.2981 10.8523 0 0 0
226 13 3 0.046089 8.08821 13.8116 11.2816 0 0 0
227 13 3 0.046089 8.33015 12.8458 12.7502 0 0 0
228 13 4 0.121889 9.97298 15.1473 13.0841 0 0 0
229 13 4 0.121889 8.31521 16.4034 14.194 0 0 0
230 13 3 0.046089 6.10834 14.7321 14.4367 0 0 0
231 13 3 0.046089 6.18654 14.5773 12.7189 0 0 0
232 13 3 0.033922 6.13794 17.3428 14.3173 0 0 0
233 13 3 0.033922 5.9094 17.1071 12.54 0 0 0
234 13 3 0.033922 4.7043 16.5503 13.6576 0 0 0
235 14 1 -0.091211 13.8334 8.38878 16.5366 0 0 0
236 14 1 -0.050311 13.2442 7.7929 17.8334 0 0 0
237 14 2 -0.174311 14.2201 7.57654 18.9869 0 0 0
238 14 2 -0.174311 13.8323 7.70071 20.3011 0 0 0
239 14 1 -0.050311 12.4296 7.7751 20.8492 0 0 0
240 14 1 -0.091211 12.1454 9.08403 21.5725 0 0 0
241 14 3 0.033922 14.7681 7.92877 16.2027 0 0 0
242 14 3 0.033922 14.071 9.43995 16.7242 0 0 0
243 14 3 0.033922 13.112 8.26223 15.724 0 0 0
244 14 3 0.046089 12.5774 8.55495 18.2473 0 0 0
245 14 3 0.046089 12.8125 6.8248 17.5631 0 0 0
246 14 4 0.121889 15.227 7.28646 18.7041 0 0 0
247 14 4 0.121889 14.5558 7.66349 21.1094 0 0 0
248 14 3 0.046089 12.3533 6.95552 21.5697 0 0 0
249 14 3 0.046089 11.7626 7.61561 19.997 0 0 0
250 14 3 0.033922 11.1338 9.1851 21.9762 0 0 0
251 14 3 0.033922 12.8235 9.28825 -0.897707 0 0 1
252 14 3 0.033922 12.3163 9.86395 20.8247 0 0 0
253 15 1 -0.091211 5.20415 18.8623 17.9514 0 0 0
254 15 1 -0.050311 4.33058 17.7335 17.2307 0 0 0
255 15 2 -0.174311 2.89225 17.6592 17.7122 0 0 0
256 15 2 -0.174311 2.53001 16.8114 18.807 0 0 0
257 15 1 -0.050311 3.58036 16.0325 19.6707 0 0 0
258 15 1 -0.091211 3.32121 16.2545 21.1399 0 0 0
259 15 3 0.033922 4.88367 19.8872 17.7427 0 0 0
260 15 3 0.033922 6.24049 18.6503 17.6727 0 0 0
261 15 3 0.033922 5.27254 18.712 19.0328 0 0 0
262 15 3 0.046089 4.18155 17.9543 16.1697 0 0 0
263 15 3 0.046089 4.83108 16.7611 17.2078 0 0 0
264 15 4 0.121889 2.17886 18.308 17.2139 0 0 0
265 15 4 0.121889 1.49505 16.7026 19.1153 0 0 0
266 15 3 0.046089 4.63352 16.1892 19.4199 0 0 0
267 15 3 0.046089 3.46509 14.9524 19.5415 0 0 0
268 15 3 0.033922 2.37593 15.7701 21.4014 0 0 0
269 15 3 0.033922 4.13679 15.7726 21.6869 0 0 0
270 15 3 0.033922 3.35899 17.3232 21.3703 0 0 0
271 16 1 -0.091211 10.1921 19.1954 1.48145 0 0 0
272 16 1 -0.050311 9.76879 19.7987 2.8585 0 0 0
273 16 2 -0.174311 8.29698 20.0397 3.00611 0 0 0
274 16 2 -0.174311 7.78474 20.688 4.05694 0 0 0
275 16 1 -0.050311 8.68281 21.4045 5.06665 0 0 0
276 16 1 -0.091211 7.86017 21.57 6.41154 0 0 0
277 16 3 0.033922 9.9328 18.1361 1.56662 0 0 0
278 16 3 0.033922 11.2762 19.2532 1.34774 0 0 0
279 16 3 0.033922 9.63305 19.6987 0.687172 0 0 0
280 16 3 0.046089 10.0256 19.2054 3.74086 0 0 0
281 16 3 0.046089 10.3099 20.7412 2.98302 0 0 0
282 16 4 0.121889 7.71989 19.6461 2.17543 0 0 0
283 16 4 0.121889 6.7041 20.7683 4.11843 0 0 0
284 16 3 0.046089 9.09118 -0.165638 4.64539 0 1 0
285 16 3 0.046089 9.54524 20.7571 5.25006 0 0 0
286 16 3 0.033922 8.49056 22.0543 7.16301 0 0 0
287 16 3 0.033922 6.91075 -0.384658 6.4823 0 1 0
288 16 3 0.033922 7.61667 20.5843 6.81846 0 0 0
289 17 1 -0.091211 10.3663 10.7128 18.0873 0 0 0
290 17 1 -0.050311 9.79143 12.1293 18.0944 0 0 0
291 17 2 -0.174311 9.86807 12.8594 16.7875 0 0 0
292 17 2 -0.174311 9.62128 14.2478 16.6264 0 0 0
293 17 1 -0.050311 9.47407 15.2902 17.6857 0 0 0
294 17 1 -0.091211 8.29927 16.1452 17.4086 0 0 0
295 17 3 0.033922 10.0525 10.0554 17.2713 0 0 0
296 17 3 0.033922 10.104 10.0861 18.9447 0 0 0
297 17 3 0.033922 11.4559 10.7751 18.0139 0 0 0
298 17 3 0.046089 8.71641 12.0607 18.2848 0 0 0
299 17 3 0.046089 10.293 12.7408 18.8501 0 0 0
300 17 4 0.121889 10.0336 12.1697 15.9659 0 0 0
301 17 4 0.121889 9.64661 14.4423 15.5589 0 0 0
302 17 3 0.046089 10.3435 15.9361 17.8387 0 0 0
303 17 3 0.046089 9.34768 14.7628 18.6357 0 0 0
304 17 3 0.033922 8.13962 16.8358 18.2418 0 0 0
305 17 3 0.033922 8.30887 16.716 16.4754 0 0 0
306 17 3 0.033922 7.43748 15.4741 17.3496 0 0 0
307 18 1 -0.091211 38.7758 10.6124 4.57583 -1 0 1
308 18 1 -0.050311 38.5679 9.98102 5.97538 -1 0 1
309 18 2 -0.174311 -0.0335439 9.60261 6.47491 0 0 1
310 18 2 -0.174311 0.780511 10.3015 7.35102 0 0 1
311 18 1 -0.050311 0.370568 11.4629 8.18927 0 0 1
312 18 1 -0.091211 1.26197 12.7189 7.95809 0 0 1
313 18 3 0.033922 -0.458504 9.99456 4.04144 0 0 1
314 18 3 0.033922 39.0642 11.6642 4.66008 -1 0 1
315 18 3 0.033922 37.9015 10.6251 3.91847 -1 0 1
316 18 3 0.046089 38.0694 10.6862 6.64688 -1 0 1
317 18 3 0.046089 37.8007 9.20286 5.9251 -1 0 1
318 18 4 0.121889 0.390693 8.74449 5.96336 0 0 1
319 18 4 0.121889 1.78555 9.92593 7.5149 0 0 1
320 18 3 0.046089 0.482943 11.1466 9.23042 0 0 1
321 18 3 0.046089 39.2722 11.7294 8.15125 -1 0 1
322 18 3 0.033922 2.26652 12.5102 8.33746 0 0 1
323 18 3 0.033922 1.39355 12.9081 6.88871 0 0 1
324 18 3 0.033922 0.806022 13.5321 8.53031 0 0 1
325 19 1 -0.091211 16.5929 9.76103 -0.304801 0 0 0
326 19 1 -0.050311 16.8538 8.65303 0.733696 0 0 0
327 19 2 -0.174311 16.692 9.16978 2.13757 0 0 0
328 19 2 -0.174311 15.6339 8.92398 3.03312 0 0 0
329 19 1 -0.050311 14.3923 8.15819 2.78097 0 0 0
330 19 1 -0.091211 13.2989 9.16619 2.62668 0 0 0
331 19 3 0.033922 15.6251 10.2405 -0.130964 0 0 0
332 19 3 0.033922 16.4457 9.31735 22.0101 0 0 -1
333 19 3 0.033922 17.4383 10.4552 -0.312213 0 0 0
334 19 3 0.046089 16.094 7.86991 0.655651 0 0 0
335 19 3 0.046089 17.8584 8.24528 0.588511 0 0 0
336 19 4 0.121889 17.5307 9.71861 2.55401 0 0 0
337 19 4 0.121889 15.8093 9.17964 4.07327 0 0 0
338 19 3 0.046089 14.1777 7.5495 3.66421 0 0 0
339 19 3 0.046089 14.5214 7.51038 1.90901 0 0 0
340 19 3 0.033922 13.4589 9.87134 1.80581 0 0 0
341 19 3 0.033922 12.3 8.73338 2.51988 0 0 0
342 19 3 0.033922 13.3234 9.7246 3.56701 0 0 0
343 20 1 -0.091211 13.187 21.1064 13.5672 0 -1 0
344 20 1 -0.050311 14.0628 20.0823 12.9557 0 -1 0
345 20 2 -0.174311 14.4584 20.6565 11.6424 0 -1 0
346 20 2 -0.174311 15.7073 21.1843 11.2882 0 -1 0
347 20 1 -0.050311 16.8986 21.0837 12.2552 0 -1 0
348 20 1 -0.091211 18.1755 21.8331 11.8459 0 -1 0
349 20 3 0.033922 13.6379 -0.409564 13.3725 0 0 0
350 20 3 0.033922 13.0623 20.9616 14.6443 0 -1 0
351 20 3 0.033922 12.2217 21.0385 13.0571 0 -1 0
352 20 3 0.046089 14.9293 20.0069 13.6191 0 -1 0
353 20 3 0.046089 13.6228 19.0847 12.8664 0 -1 0
354 20 4 0.121889 13.6553 20.9948 10.9954 0 -1 0
355 20 4 0.121889 15.805 21.6321 10.3044 0 -1 0
356 20 3 0.046089 17.1941 20.0624 12.5125 0 -1 0
357 20 3 0.046089 16.4999 21.5369 13.1674 0 -1 0
358 20 3 0.033922 18.6187 21.4206 10.9348 0 -1 0
359 20 3 0.033922 17.9689 0.403176 11.6947 0 0 0
360 20 3 0.033922 18.9521 21.6982 12.6044 0 -1 0
361 21 1 -0.091211 4.43512 1.36316 15.7851 0 0 0
362 21 1 -0.050311 3.19515 0.598267 16.304 0 0 0
363 21 2 -0.174311 2.61289 1.43705 17.4181 0 0 0
364 21 2 -0.174311 2.38234 0.916262 18.7548 0 0 0
365 21 1 -0.050311 2.56618 21.9544 19.2436 0 -1 0
366 21 1 -0.091211 1.46955 21.5417 20.1855 0 -1 0
367 21 3 0.033922 4.15322 2.31359 15.3227 0 0 0
368 21 3 0.033922 4.85448 0.78995 14.9531 0 0 0
369 21 3 0.033922 5.19532 1.50762 16.5584 0 0 0
370 21 3 0.046089 2.43121 0.443608 15.5365 0 0 0
371 21 3 0.046089 3.50637 -0.39781 16.632 0 0 0
372 21 4 0.121889 2.34783 2.47763 17.2602 0 0 0
373 21 4 0.121889 1.98744 1.58816 19.5102 0 0 0
374 21 3 0.046089 3.53137 21.8365 19.7448 0 -1 0
375 21 3 0.046089 2.66569 21.272 18.3944 0 -1 0
376 21 3 0.033922 0.487787 21.5583 19.7033 0 -1 0
377 21 3 0.033922 1.59037 20.4919 20.4684 0 -1 0
378 21 3 0.033922 1.43351 -0.366174 21.1088 0 0 0
379 22 1 -0.091211 6.61964 0.839342 11.338 0 0 0
380 22 1 -0.050311 7.30611 -0.240073 12.2101 0 0 0
381 22 2 -0.174311 7.27537 0.254225 13.6869 0 0 0
382 22 2 -0.174311 7.16492 22.0011 14.863 0 -1 0
383 22 1 -0.050311 7.03647 20.4776 14.9462 0 -1 0
384 22 1 -0.091211 8.26278 19.8826 15.6644 0 -1 0
385 22 3 0.033922 5.54322 0.791407 11.5268 0 0 0
386 22 3 0.033922 6.6551 0.593899 10.2725 0 0 0
387 22 3 0.033922 6.98679 1.84015 11.5834 0 0 0
388 22 3 0.046089 6.75685 21.3075 12.1909 0 -1 0
389 22 3 0.046089 8.33972 -0.394675 11.887 0 0 0
390 22 4 0.121889 7.3686 1.32986 13.7979 0 0 0
391 22 4 0.121889 7.18694 -0.0219861 15.8409 0 0 0
392 22 3 0.046089 7.02731 20.1438 13.9045 0 -1 0
393 22 3 0.046089 6.08583 20.2449 15.4348 0 -1 0
394 22 3 0.033922 9.17823 20.0545 15.0908 0 -1 0
395 22 3 0.033922 8.34513 20.2702 16.684 0 -1 0
396 22 3 0.033922 8.09796 18.8033 15.7325 0 -1 0
397 23 1 -0.091211 3.93808 7.13677 21.9748 0 0 -1
398 23 1 -0.050311 4.6304 7.61517 -0.0823562 0 0 0
399 23 2 -0.174311 3.64744 8.03639 1.02467 0 0 0
400 23 2 -0.174311 3.88862 8.08577 2.36166 0 0 0
401 23 1 -0.050311 5.22276 7.72082 2.93758 0 0 0
402 23 1 -0.091211 5.2846 8.0305 4.38433 0 0 0
403 23 3 0.033922 4.64719 6.75568 21.2341 0 0 -1
404 23 3 0.033922 3.42993 8.05541 21.6673 0 0 -1
405 23 3 0.033922 3.15225 6.42949 22.2555 0 0 -1
406 23 3 0.046089 5.27496 6.80021 0.259698 0 0 0
407 23 3 0.046089 5.37437 8.37809 -0.329522 0 0 0
408 23 4 0.121889 2.65823 8.38732 0.74844 0 0 0
409 23 4 0.121889 3.18644 8.60989 3.00217 0 0 0
410 23 3 0.046089 6.01623 8.23718 2.38949 0 0 0
411 23 3 0.046089 5.42495 6.65012 2.84101 0 0 0
412 23 3 0.033922 5.06798 9.10185 4.42816 0 0 0
413 23 3 0.033922 4.41229 7.6555 4.92753 0 0 0
414 23 3 0.033922 6.26773 7.72293 4.75241 0 0 0
415 24 1 -0.091211 1.2185 14.0579 2.05829 0 0 0
416 24 1 -0.050311 2.47383 13.2249 1.89151 0 0 0
417 24 2 -0.174311 3.53086 13.8855 1.05161 0 0 0
418 24 2 -0.174311 4.58578 13.2145 0.539475 0 0 0
419 24 1 -0.050311 4.82873 11.7379 0.901368 0 0 0
420 24 1 -0.091211 6.40473 11.5229 0.727659 0 0 0
421 24 3 0.033922 1.52103 14.9609 2.59642 0 0 0
422 24 3 0.033922 0.481419 13.5578 2.69331 0 0 0
423 24 3 0.033922 0.88907 14.2874 1.04072 0 0 0
424 24 3 0.046089 2.90388 13.0156 2.87533 0 0 0
425 24 3 0.046089 2.11497 12.3374 1.36205 0 0 0
426 24 4 0.121889 3.39065 14.8939 0.675349 0 0 0
427 24 4 0.121889 5.27476 13.7589 -0.0984078 0 0 0
428 24 3 0.046089 4.23632 11.1753 0.173951 0 0 0
429 24 3 0.046089 4.57967 11.5054 1.94087 0 0 0
430 24 3 0.033922 6.94495 11.7963 1.63877 0 0 0
431 24 3 0.033922 6.71626 10.4853 0.576176 0 0 0
432 24 3 0.033922 6.78329 12.0874 -0.129505 0 0 0
433 25 1 -0.091211 7.33949 10.2206 14.6703 0 0 0
434 25 1 -0.050311 8.79494 10.0158 14.063 0 0 0
435 25 2 -0.174311 8.70762 9.16615 12.8288 0 0 0
436 25 2 -0.174311 9.68573 8.27259 12.5243 0 0 0
437 25 1 -0.050311 11.0653 8.16289 13.0793 0 0 0
438 25 1 -0.091211 11.1136 7.03043 14.0462 0 0 0
439 25 3 0.033922 7.35238 10.4619 15.7372 0 0 0
440 25 3 0.033922 6.80692 9.27053 14.5687 0 0 0
441 25 3 0.033922 6.83586 11.0406 14.1501 0 0 0
442 25 3 0.046089 9.17131 10.9706 13.6845 0 0 0
443 25 3 0.046089 9.41197 9.50994 14.8114 0 0 0
444 25 4 0.121889 7.75215 9.08407 12.3205 0 0 0
445 25 4 0.121889 9.37617 7.55312 11.773 0 0 0
446 25 3 0.046089 11.4304 9.0773 13.5559 0 0 0
447 25 3 0.046089 11.7179 7.92379 12.2345 0 0 0
448 25 3 0.033922 10.6303 6.23042 13.4778 0 0 0
449 25 3 0.033922 12.1669 6.78636 14.2124 0 0 0
450 25 3 0.033922 10.5663 7.24021 14.9698 0 0 0
451 26 1 -0.091211 3.99167 19.7369 11.8518 0 -1 0
452 26 1 -0.050311 2.61675 19.4654 12.5069 0 -1 0
453 26 2 -0.174311 2.06175 20.7551 12.853 0 -1 0
454 26 2 -0.174311 0.728567 21.0074 13.1966 0 -1 0
455 26 1 -0.050311 -0.186907 19.7453 13.4264 0 -1 0
456 26 1 -0.091211 38.506 20.0163 14.2396 -1 -1 0
457 26 3 0.033922 3.79322 20.3612 10.9757 0 -1 0
458 26 3 0.033922 4.44676 18.7918 11.5414 0 -1 0
459 26 3 0.033922 4.65035 20.3124 12.5088 0 -1 0
460 26 3 0.046089 1.98788 18.8483 11.8585 0 -1 0
461 26 3 0.046089 2.81316 18.9385 13.4452 0 -1 0
462 26 4 0.121889 2.68708 21.6357 12.9606 0 -1 0
463 26 4 0.121889 0.260746 21.9707 13.3732 0 -1 0
464 26 3 0.046089 0.297471 18.9467 13.9958 0 -1 0
465 26 3 0.046089 -0.559033 19.303 12.4977 0 -1 0
466 26 3 0.033922 37.9589 19.0739 14.3356 -1 -1 0
467 26 3 0.033922 38.7451 20.3204 15.2628 -1 -1 0
468 26 3 0.033922 37.9295 20.7794 13.7085 -1 -1 0
469 27 1 -0.091211 20.2681 13.129 8.74471 0 0 0
470 27 1 -0.050311 20.8273 12.995 7.36932 0 0 0
471 27 2 -0.174311 19.7431 12.8165 6.31606 0 0 0
472 27 2 -0.174311 19.3417 11.6432 5.77182 0 0 0
473 27 1 -0.050311 19.9814 10.2798 6.02997 0 0 0
474 27 1 -0.091211 19.4477 9.28222 4.92773 0 0 0
475 27 3 0.033922 21.0818 13.1521 9.47539 0 0 0
476 27 3 0.033922 19.5922 12.2933 8.94825 0 0 0
477 27 3 0.033922 19.7585 14.0897 8.86327 0 0 0
478 27 3 0.046089 21.4248 13.8615 7.07144 0 0 0
479 27 3 0.046089 21.4218 12.0786 7.42723 0 0 0
480 27 4 0.121889 19.2133 13.6889 5.94697 0 0 0
481 27 4 0.121889 18.5111 11.6737 5.07381 0 0 0
482 27 3 0.046089 19.8319 9.90541 7.0469 0 0 0
483 27 3 0.046089 21.0657 10.4071 5.96012 0 0 0
484 27 3 0.033922 18.4501 8.94507 5.22405 0 0 0
485 27 3 0.033922 19.4363 9.78231 3.95488 0 0 0
486 27 3 0.033922 20.0894 8.3994 4.85373 0 0 0
487 28 1 -0.091211 9.7156 19.5124 19.8901 0 -1 -1
488 28 1 -0.050311 8.51068 19.0577 20.7414 0 -1 -1
489 28 2 -0.174311 8.17394 20.0879 21.7255 0 -1 -1
490 28 2 -0.174311 6.91775 20.0469 -0.941076 0 -1 0
491 28 1 -0.050311 5.75635 19.0645 22.1094 0 -1 -1
492 28 1 -0.091211 5.77962 17.8644 -0.1871 0 -1 0
493 28 3 0.033922 9.92123 18.8198 19.0686 0 -1 -1
494 28 3 0.033922 10.5374 19.5382 20.6116 0 -1 -1
495 28 3 0.033922 9.60576 20.529 19.5014 0 -1 -1
496 28 3 0.046089 7.65193 18.8923 20.0843 0 -1 -1
497 28 3 0.046089 8.71238 18.0946 21.2193 0 -1 -1
498 28 4 0.121889 8.89286 20.8706 21.9458 0 -1 -1
499 28 4 0.121889 6.79418 20.7531 -0.126224 0 -1 0
500 28 3 0.046089 5.87482 18.5684 21.1416 0 -1 -1
501 28 3 0.046089 4.84318 19.6563 22.2212 0 -1 -1
502 28 3 0.033922 4.77166 17.4487 -0.0987485 0 -1 0
503 28 3 0.033922 6.34663 16.9988 -0.541782 0 -1 0
504 28 3 0.033922 6.16492 18.2252 0.77103 0 -1 0
505 29 1 -0.091211 7.53093 3.22053 4.78038 0 0 0
506 29 1 -0.050311 7.24817 3.41345 6.25784 0 0 0
507 29 2 -0.174311 7.3407 4.87827 6.66274 0 0 0
508 29 2 -0.174311 7.61258 5.26962 7.99461 0 0 0
509 29 1 -0.050311 7.70399 4.3176 9.10695 0 0 0
510 29 1 -0.091211 7.78479 5.0493 10.4902 0 0 0
511 29 3 0.033922 8.4765 3.71633 4.54225 0 0 0
512 29 3 0.033922 6.70048 3.58604 4.16932 0 0 0
513 29 3 0.033922 7.64849 2.16063 4.53666 0 0 0
514 29 3 0.046089 6.23185 3.1101 6.5256 0 0 0
515 29 3 0.046089 7.98625 2.81033 6.7946 0 0 0
516 29 4 0.121889 7.35196 5.64795 5.89756 0 0 0
517 29 4 0.121889 7.74449 6.33284 8.16833 0 0 0
518 29 3 0.046089 8.58303 3.67213 9.02167 0 0 0
519 29 3 0.046089 6.78339 3.72777 9.07214 0 0 0
520 29 3 0.033922 8.75552 5.55048 10.5462 0 0 0
521 29 3 0.033922 7.029 5.81841 10.6742 0 0 0
522 29 3 0.033922 7.74587 4.2514 11.2375 0 0 0
523 30 1 -0.091211 12.1506 12.3314 0.164213 0 0 1
524 30 1 -0.050311 10.841 12.4948 -0.700405 0 0 1
525 30 2 -0.174311 11.1386 13.5956 21.6293 0 0 0
526 30 2 -0.174311 10.322 14.7053 21.4586 0 0 0
527 30 1 -0.050311 9.03833 14.9752 22.2339 0 0 0
528 30 1 -0.091211 7.78726 14.6743 21.4614 0 0 0
529 30 3 0.033922 11.9441 11.6057 0.956324 0 0 1
530 30 3 0.033922 12.4521 13.2665 0.645111 0 0 1
531 30 3 0.033922 12.9398 11.9758 -0.504617 0 0 1
532 30 3 0.046089 10.5777 11.5722 22.0781 0 0 0
533 30 3 0.046089 10.0256 12.7309 -0.0104479 0 0 1
534 30 4 0.121889 12.0513 13.5555 21.0435 0 0 0
535 30 4 0.121889 10.7569 15.3991 20.7463 0 0 0
536 30 3 0.046089 9.11017 16.0489 -0.873654 0 0 1
537 30 3 0.046089 9.05684 14.4792 -0.0951831 0 0 1
538 30 3 0.033922 7.9161 13.6989 20.9833 0 0 0
539 30 3 0.033922 6.91235 14.6845 22.118 0 0 0
540 30 3 0.033922 7.54609 15.4331 20.7112 0 0 0
541 31 1 -0.091211 19.2201 6.91143 15.9864 0 1 0
542 31 1 -0.050311 17.9972 6.93038 16.9069 0 1 0
543 31 2 -0.174311 18.093 5.71578 17.8721 0 1 0
544 31 2 -0.174311 17.2229 4.59427 17.8713 0 1 0
545 31 1 -0.050311 16.0298 4.34279 16.9211 0 1 0
546 31 1 -0.091211 15.1338 3.34419 17.6221 0 1 0
547 31 3 0.033922 19.1104 6.3172 15.0746 0 1 0
548 31 3 0.033922 20.0336 6.41032 16.5192 0 1 0
549 31 3 0.033922 19.6366 7.89044 15.7321 0 1 0
550 31 3 0.046089 17.9715 7.86808 17.4697 0 1 0
551 31 3 0.046089 17.13 6.93144 16.2401 0 1 0
552 31 4 0.121889 18.9055 5.76119 18.5903 0 1 0
553 31 4 0.121889 17.4164 3.80815 18.5942 0 1 0
554 31 3 0.046089 16.2928 3.91797 15.948 0 1 0
555 31 3 0.046089 15.556 5.27796 16.6087 0 1 0
556 31 3 0.033922 15.374 2.29966 17.4033 0 1 0
557 31 3 0.033922 15.132 3.27917 18.7141 0 1 0
558 31 3 0.033922 14.1221 3.60182 17.2952 0 1 0
559 32 1 -0.091211 16.5608 0.635545 0.287637 0 1 0
560 32 1 -0.050311 17.106 0.581288 1.73617 0 1 0
561 32 2 -0.174311 16.9692 21.6657 2.17332 0 0 0
562 32 2 -0.174311 16.9282 21.2932 3.50105 0 0 0
563 32 1 -0.050311 16.8549 -0.353561 4.72376 0 1 0
564 32 1 -0.091211 16.5325 21.1973 5.9376 0 0 0
565 32 3 0.033922 15.4865 0.460871 0.178335 0 1 0
566 32 3 0.033922 17.0898 -0.0623266 -0.367882 0 1 0
567 32 3 0.033922 16.8008 1.61706 -0.131431 0 1 0
568 32 3 0.046089 18.1737 0.815562 1.69315 0 1 0
569 32 3 0.046089 16.5246 1.21143 2.41548 0 1 0
570 32 4 0.121889 16.9094 20.936 1.37209 0 0 0
571 32 4 0.121889 16.8618 20.2126 3.57777 0 0 0
572 32 3 0.046089 16.1079 0.439183 4.623 0 1 0
573 32 3 0.046089 17.8298 0.124263 4.85796 0 1 0
574 32 3 0.033922 16.4846 21.8099 6.84264 0 0 0
575 32 3 0.033922 15.6049 20.637 5.78887 0 0 0
576 32 3 0.033922 17.3305 20.4532 6.01559 0 0 0
577 33 1 -0.091211 10.8582 13.6148 7.36685 0 0 0
578 33 1 -0.050311 12.0729 14.6297 7.38468 0 0 0
579 33 2 -0.174311 13.0809 14.072 8.33382 0 0 0
580 33 2 -0.174311 13.5875 14.6032 9.49872 0 0 0
581 33 1 -0.050311 13.1393 15.8137 10.2205 0 0 0
582 33 1 -0.091211 14.3436 16.3215 10.9184 0 0 0
583 33 3 0.033922 10.4288 13.7167 8.36781 0 0 0
584 33 3 0.033922 11.1313 12.5635 7.23768 0 0 0
585 33 3 0.033922 10.1198 13.7962 6.58036 0 0 0
586 33 3 0.046089 12.4613 14.5709 6.36373 0 0 0
587 33 3 0.046089 11.6653 15.5722 7.76169 0 0 0
588 33 4 0.121889 13.369 13.0842 7.98847 0 0 0
589 33 4 0.121889 14.2868 13.9498 10.0106 0 0 0
590 33 3 0.046089 12.499 15.3458 10.974 0 0 0
591 33 3 0.046089 12.6456 16.6576 9.73001 0 0 0
592 33 3 0.033922 15.0753 16.6646 10.1811 0 0 0
593 33 3 0.033922 14.12 17.141 11.6077 0 0 0
594 33 3 0.033922 14.7984 15.5227 11.5114 0 0 0
595 34 1 -0.091211 23.5527 16.6784 14.5485 0 0 0
596 34 1 -0.050311 22.8903 16.1625 13.1995 0 0 0
597 34 2 -0.174311 22.2387 17.3495 12.3933 0 0 0
598 34 2 -0.174311 21.9693 17.3966 11.0704 0 0 0
599 34 1 -0.050311 22.3357 16.3329 10.1379 0 0 0
600 34 1 -0.091211 23.14 16.8814 8.95737 0 0 0
601 34 3 0.033922 24.5041 17.1341 14.2589 0 0 0
602 34 3 0.033922 23.8584 15.8547 15.2002 0 0 0
603 34 3 0.033922 22.9437 17.3534 15.1568 0 0 0
604 34 3 0.046089 23.6452 15.6703 12.5794 0 0 0
605 34 3 0.046089 22.0799 15.4673 13.4371 0 0 0
606 34 4 0.121889 21.9281 18.1571 13.0485 0 0 0
607 34 4 0.121889 21.3709 18.2076 10.6678 0 0 0
608 34 3 0.046089 21.4267 15.8181 9.81349 0 0 0
609 34 3 0.046089 22.9764 15.5185 10.4884 0 0 0
610 34 3 0.033922 24.1919 16.5994 9.06013 0 0 0
611 34 3 0.033922 22.8276 16.3851 8.03392 0 0 0
612 34 3 0.033922 23.0585 17.9646 8.82856 0 0 0
613 35 1 -0.091211 0.321759 13.7947 18.5839 0 0 0
614 35 1 -0.050311 0.16894 12.5837 17.8382 0 0 0
615 35 2 -0.174311 38.7057 12.0846 17.7335 -1 0 0
616 35 2 -0.174311 38.0033 11.811 16.5836 -1 0 0