ITEM: TIMESTEP
73800
ITEM: NUMBER OF ATOMS
1800
ITEM: BOX BOUNDS pp pp pp
-4.2757664455489532e+00 4.3083781945548239e+01
8.1573648923367337e-01 2.0792919010766767e+01
-3.0737091073926059e-01 2.1561104410738835e+01
ITEM: ATOMS id mol type q x y z ix iy iz
1 1 1 -0.091211 2.93515 11.2901 16.657 0 -1 0
2 1 1 -0.050311 1.96839 11.5638 15.481 0 -1 0
3 1 2 -0.174311 1.54478 12.9986 15.5014 0 -1 0
4 1 2 -0.174311 1.37134 13.7326 14.3415 0 -1 0
5 1 1 -0.050311 1.75002 13.3378 12.9316 0 -1 0
6 1 1 -0.091211 3.02084 14.116 12.5283 0 -1 0
7 1 3 0.033922 3.80149 11.9572 16.624 0 -1 0
8 1 3 0.033922 3.36505 10.2862 16.596 0 -1 0
9 1 3 0.033922 2.46405 11.3835 17.6399 0 -1 0
10 1 3 0.046089 2.40729 11.2794 14.5202 0 -1 0
11 1 3 0.046089 1.11911 10.9019 15.6737 0 -1 0
12 1 4 0.121889 1.35614 13.4938 16.4486 0 -1 0
13 1 4 0.121889 1.03842 14.7648 14.3813 0 -1 0
14 1 3 0.046089 0.948865 13.6332 12.2479 0 -1 0
15 1 3 0.046089 1.87188 12.2664 12.7481 0 -1 0
16 1 3 0.033922 3.39517 13.7975 11.551 0 -1 0
17 1 3 0.033922 2.86114 15.1974 12.4865 0 -1 0
18 1 3 0.033922 3.8108 13.8977 13.2528 0 -1 0
19 2 1 -0.091211 5.82973 4.08479 10.53 0 0 0
20 2 1 -0.050311 7.23882 3.78801 10.2032 0 0 0
21 2 2 -0.174311 7.72966 4.24158 8.85495 0 0 0
22 2 2 -0.174311 9.0111 4.69284 8.65213 0 0 0
23 2 1 -0.050311 10.1341 4.64277 9.65486 0 0 0
24 2 1 -0.091211 11.4521 5.12976 8.96164 0 0 0
25 2 3 0.033922 5.10475 3.56603 9.89604 0 0 0
26 2 3 0.033922 5.71665 5.16697 10.4176 0 0 0
27 2 3 0.033922 5.66292 3.81855 11.5778 0 0 0
28 2 3 0.046089 7.81761 4.24443 11.0114 0 0 0
29 2 3 0.046089 7.43869 2.71264 10.2154 0 0 0
30 2 4 0.121889 7.02169 4.23881 8.03229 0 0 0
31 2 4 0.121889 9.16393 5.13897 7.67456 0 0 0
32 2 3 0.046089 10.366 3.59876 9.88462 0 0 0
33 2 3 0.046089 9.88879 5.17053 10.5811 0 0 0
34 2 3 0.033922 12.3485 4.80366 9.49713 0 0 0
35 2 3 0.033922 11.3818 4.72313 7.94855 0 0 0
36 2 3 0.033922 11.4917 6.21971 8.8783 0 0 0
37 3 1 -0.091211 0.908023 3.73647 12.3161 0 0 0
38 3 1 -0.050311 0.783094 2.4959 13.2517 0 0 0
39 3 2 -0.174311 0.526104 1.18727 12.5409 0 0 0
40 3 2 -0.174311 1.5617 20.2863 12.1212 0 -1 0
41 3 1 -0.050311 2.98332 20.5861 12.3389 0 -1 0
42 3 1 -0.091211 3.63536 1.07208 11.0337 0 0 0
43 3 3 0.033922 1.87383 3.79256 11.8055 0 0 0
44 3 3 0.033922 0.723272 4.61711 12.9381 0 0 0
45 3 3 0.033922 0.0630137 3.64384 11.6276 0 0 0
46 3 3 0.046089 1.61997 2.55866 13.9533 0 0 0
47 3 3 0.046089 -0.0560365 2.75214 13.905 0 0 0
48 3 4 0.121889 -0.522628 0.957593 12.3817 0 0 0
49 3 4 0.121889 1.29286 19.4097 11.5404 0 -1 0
50 3 3 0.046089 3.51423 19.6724 12.6215 0 -1 0
51 3 3 0.046089 3.09901 1.31129 13.1694 0 0 0
52 3 3 0.033922 4.68348 1.30861 11.2387 0 0 0
53 3 3 0.033922 3.62353 20.2422 10.2953 0 -1 0
54 3 3 0.033922 3.20536 1.99633 10.6369 0 0 0
55 4 1 -0.091211 2.03348 17.4944 14.1065 0 -1 0
56 4 1 -0.050311 1.15087 18.0184 15.1582 0 -1 0
57 4 2 -0.174311 1.87359 18.029 16.5522 0 -1 0
58 4 2 -0.174311 2.19259 19.199 17.2389 0 -1 0
59 4 1 -0.050311 2.14658 20.5303 16.5673 0 -1 0
60 4 1 -0.091211 3.15766 1.51646 17.1064 0 0 0
61 4 3 0.033922 2.83633 18.2303 14.0046 0 -1 0
62 4 3 0.033922 1.49522 17.3081 13.1726 0 -1 0
63 4 3 0.033922 2.47311 16.5356 14.3963 0 -1 0
64 4 3 0.046089 0.771947 18.9863 14.8177 0 -1 0
65 4 3 0.046089 0.214249 17.4612 15.2525 0 -1 0
66 4 4 0.121889 1.84916 17.0895 17.0951 0 -1 0
67 4 4 0.121889 2.48934 19.1252 18.2803 0 -1 0
68 4 3 0.046089 1.15357 0.984251 16.7243 0 0 0
69 4 3 0.046089 2.31698 20.3827 15.4969 0 -1 0
70 4 3 0.033922 4.12248 1.00572 17.0372 0 0 0
71 4 3 0.033922 3.16733 2.5129 16.6552 0 0 0
72 4 3 0.033922 2.89241 1.6525 18.1589 0 0 0
73 5 1 -0.091211 42.0622 10.2956 10.0481 -1 0 0
74 5 1 -0.050311 42.123 9.06695 9.202 -1 0 0
75 5 2 -0.174311 40.852 8.2112 9.37316 -1 0 0
76 5 2 -0.174311 40.4733 7.17581 8.59189 -1 0 0
77 5 1 -0.050311 41.3623 6.76748 7.39678 -1 0 0
78 5 1 -0.091211 40.8175 5.49926 6.77631 -1 0 0
79 5 3 0.033922 42.9343 10.9132 9.81475 -1 0 0
80 5 3 0.033922 42.0111 10.0073 11.1022 -1 0 0
81 5 3 0.033922 41.2177 10.9388 9.78414 -1 0 0
82 5 3 0.046089 42.2862 9.30233 8.14623 -1 0 0
83 5 3 0.046089 42.9704 8.51617 9.62056 -1 0 0
84 5 4 0.121889 40.2468 8.44857 10.2423 -1 0 0
85 5 4 0.121889 39.5185 6.69027 8.76634 -1 0 0
86 5 3 0.046089 42.3901 6.69783 7.76459 -1 0 0
87 5 3 0.046089 41.3746 7.52888 6.61146 -1 0 0
88 5 3 0.033922 39.7651 5.72163 6.57762 -1 0 0
89 5 3 0.033922 41.5111 5.37663 5.93933 -1 0 0
90 5 3 0.033922 40.9068 4.68612 7.50254 -1 0 0
91 6 1 -0.091211 8.73641 2.68253 2.37967 0 0 1
92 6 1 -0.050311 8.33535 3.18158 0.980812 0 0 1
93 6 2 -0.174311 8.44135 1.94298 0.0471879 0 0 1
94 6 2 -0.174311 7.40128 1.0874 -0.319286 0 0 1
95 6 1 -0.050311 6.10042 1.05842 0.365742 0 0 1
96 6 1 -0.091211 5.13167 1.92278 21.3033 0 0 0
97 6 3 0.033922 8.70472 3.52164 3.08071 0 0 1
98 6 3 0.033922 9.75582 2.28796 2.42025 0 0 1
99 6 3 0.033922 7.96892 1.97376 2.70392 0 0 1
100 6 3 0.046089 7.34865 3.65069 0.927105 0 0 1
101 6 3 0.046089 9.04027 3.96464 0.686822 0 0 1
102 6 4 0.121889 9.38922 1.78419 21.4114 0 0 0
103 6 4 0.121889 7.73411 20.3799 20.7756 0 -1 0
104 6 3 0.046089 6.14823 1.53043 1.35143 0 0 1
105 6 3 0.046089 5.75464 20.0055 0.491802 0 -1 1
106 6 3 0.033922 4.0739 1.94141 -0.287076 0 0 1
107 6 3 0.033922 5.51363 2.93653 21.1519 0 0 0
108 6 3 0.033922 4.94738 1.5254 20.301 0 0 0
109 7 1 -0.091211 32.4355 20.6683 21.2714 -1 0 -1
110 7 1 -0.050311 33.0546 0.990387 19.9479 -1 1 -1
111 7 2 -0.174311 31.9495 0.951434 18.7966 -1 1 -1
112 7 2 -0.174311 32.2472 20.7071 17.4837 -1 0 -1
113 7 1 -0.050311 33.6032 20.2014 16.9315 -1 0 -1
114 7 1 -0.091211 33.7204 19.9967 15.4025 -1 0 -1
115 7 3 0.033922 31.9969 19.6682 21.3325 -1 0 -1
116 7 3 0.033922 31.6178 1.37178 21.5256 -1 1 -1
117 7 3 0.033922 33.1382 0.700654 0.241292 -1 1 0
118 7 3 0.046089 33.5058 1.98559 19.8979 -1 1 -1
119 7 3 0.046089 33.9138 20.2975 19.8512 -1 0 -1
120 7 4 0.121889 30.9506 1.26069 19.0874 -1 1 -1
121 7 4 0.121889 31.4797 0.842712 16.7246 -1 1 -1
122 7 3 0.046089 33.8587 19.2097 17.3157 -1 0 -1
123 7 3 0.046089 34.3401 0.953139 17.2811 -1 1 -1
124 7 3 0.033922 33.3464 0.915925 14.8994 -1 1 -1
125 7 3 0.033922 34.7083 19.6433 15.0931 -1 0 -1
126 7 3 0.033922 33.0893 19.1171 15.2459 -1 0 -1
127 8 1 -0.091211 41.9248 7.36208 2.70879 -1 0 1
128 8 1 -0.050311 -4.29433 7.71916 3.57578 0 0 1
129 8 2 -0.174311 -3.34988 8.75083 3.02567 0 0 1
130 8 2 -0.174311 -2.84807 9.79453 3.78319 0 0 1
131 8 1 -0.050311 -3.43705 10.4567 5.03805 0 0 1
132 8 1 -0.091211 -2.3115 10.4624 6.11735 0 0 1
133 8 3 0.033922 41.2632 6.63763 3.19259 -1 0 1
134 8 3 0.033922 42.3155 6.90816 1.79342 -1 0 1
135 8 3 0.033922 41.3527 8.27555 2.52231 -1 0 1
136 8 3 0.046089 42.7563 8.08794 4.55825 -1 0 1
137 8 3 0.046089 -3.72681 6.80114 3.75374 0 0 1
138 8 4 0.121889 -2.77813 8.63548 2.11034 0 0 1
139 8 4 0.121889 -2.02656 10.3696 3.36805 0 0 1
140 8 3 0.046089 -4.32212 9.92125 5.39363 0 0 1
141 8 3 0.046089 -3.81913 11.4246 4.70067 0 0 1
142 8 3 0.033922 -2.76755 11.0422 6.9251 0 0 1
143 8 3 0.033922 -2.07358 9.48753 6.55271 0 0 1
144 8 3 0.033922 -1.40241 10.9694 5.78111 0 0 1
145 9 1 -0.091211 38.0463 5.33233 0.932674 -1 1 1
146 9 1 -0.050311 38.0917 4.75525 2.31255 -1 1 1
147 9 2 -0.174311 36.8323 4.09614 2.73791 -1 1 1
148 9 2 -0.174311 36.6311 2.71676 2.82999 -1 1 1
149 9 1 -0.050311 37.7317 1.70416 2.5253 -1 1 1
150 9 1 -0.091211 37.2149 20.5231 1.77764 -1 0 1
151 9 3 0.033922 37.6653 4.54158 0.279882 -1 1 1
152 9 3 0.033922 39.0165 5.69581 0.58183 -1 1 1
153 9 3 0.033922 37.3541 6.16813 0.795279 -1 1 1
154 9 3 0.046089 38.894 4.0166 2.22772 -1 1 1
155 9 3 0.046089 38.4105 5.5107 3.03658 -1 1 1
156 9 4 0.121889 36.024 4.7814 2.97238 -1 1 1
157 9 4 0.121889 35.7059 2.303 3.21814 -1 1 1
158 9 3 0.046089 38.1864 1.37499 3.46421 -1 1 1
159 9 3 0.046089 38.4993 2.18061 1.90855 -1 1 1
160 9 3 0.033922 36.9175 20.7785 0.756379 -1 0 1
161 9 3 0.033922 37.9847 19.7499 1.69869 -1 0 1
162 9 3 0.033922 36.3301 20.0897 2.25281 -1 0 1
163 10 1 -0.091211 5.09327 11.9365 8.39094 0 0 1
164 10 1 -0.050311 5.78006 11.497 9.68672 0 0 1
165 10 2 -0.174311 7.208 11.9004 9.64089 0 0 1
166 10 2 -0.174311 8.29723 11.1375 9.80604 0 0 1
167 10 1 -0.050311 8.21615 9.68307 10.1504 0 0 1
168 10 1 -0.091211 9.39609 9.24292 10.9374 0 0 1
169 10 3 0.033922 5.19119 13.0256 8.3624 0 0 1
170 10 3 0.033922 4.0165 11.7589 8.46545 0 0 1
171 10 3 0.033922 5.58472 11.4191 7.56187 0 0 1
172 10 3 0.046089 5.17151 11.9454 10.4774 0 0 1
173 10 3 0.046089 5.67893 10.408 9.67001 0 0 1
174 10 4 0.121889 7.38776 12.9378 9.37746 0 0 1
175 10 4 0.121889 9.298 11.5548 9.75863 0 0 1
176 10 3 0.046089 8.09708 9.08709 9.2409 0 0 1
177 10 3 0.046089 7.28424 9.48157 10.6866 0 0 1
178 10 3 0.033922 10.3307 9.34568 10.3784 0 0 1
179 10 3 0.033922 9.45902 9.91616 11.7973 0 0 1
180 10 3 0.033922 9.24196 8.2101 11.263 0 0 1
181 11 1 -0.091211 -0.816994 11.6111 18.3611 0 0 0
182 11 1 -0.050311 -1.47191 12.7229 19.1236 0 0 0
183 11 2 -0.174311 -2.95713 12.5816 18.7493 0 0 0
184 11 2 -0.174311 -3.59737 13.3046 17.8847 0 0 0
185 11 1 -0.050311 -2.99431 14.4049 17.0699 0 0 0
186 11 1 -0.091211 -3.03184 15.6449 17.93 0 0 0
187 11 3 0.033922 -1.27103 10.6758 18.701 0 0 0
188 11 3 0.033922 0.240075 11.5666 18.6389 0 0 0
189 11 3 0.033922 -0.921501 11.7426 17.2801 0 0 0
190 11 3 0.046089 -1.31686 12.57 20.1956 0 0 0
191 11 3 0.046089 -1.03092 13.6839 18.8433 0 0 0
192 11 4 0.121889 -3.5023 11.7966 19.2637 0 0 0
193 11 4 0.121889 42.7161 13.0849 17.6966 -1 0 0
194 11 3 0.046089 -3.46485 14.5722 16.0967 0 0 0
195 11 3 0.046089 -1.93643 14.2175 16.8642 0 0 0
196 11 3 0.033922 -2.76761 15.3896 18.9604 0 0 0
197 11 3 0.033922 -2.31311 16.355 17.5108 0 0 0
198 11 3 0.033922 -4.02013 16.113 17.9037 0 0 0
199 12 1 -0.091211 1.16796 10.0471 8.43762 0 0 0
200 12 1 -0.050311 0.0392038 9.02923 8.82927 0 0 0
201 12 2 -0.174311 -0.377266 9.05229 10.2833 0 0 0
202 12 2 -0.174311 -0.724265 8.01404 11.0518 0 0 0
203 12 1 -0.050311 -0.788358 6.47423 10.7014 0 0 0
204 12 1 -0.091211 -2.19626 6.00905 10.4852 0 0 0
205 12 3 0.033922 1.44024 9.96685 7.38116 0 0 0
206 12 3 0.033922 1.99698 9.90406 9.1368 0 0 0
207 12 3 0.033922 0.7714 11.0598 8.55481 0 0 0
208 12 3 0.046089 -0.880256 9.1993 8.2616 0 0 0
209 12 3 0.046089 0.551775 8.09977 8.56488 0 0 0
210 12 4 0.121889 -0.329557 10.02 10.7723 0 0 0
211 12 4 0.121889 -1.0067 8.18152 12.0863 0 0 0
212 12 3 0.046089 -0.207146 5.91547 11.4407 0 0 0
213 12 3 0.046089 -0.311798 6.42122 9.71818 0 0 0
214 12 3 0.033922 -2.93505 6.23942 11.2583 0 0 0
215 12 3 0.033922 -2.64786 6.39677 9.56735 0 0 0
216 12 3 0.033922 -2.15051 4.92125 10.3798 0 0 0
217 13 1 -0.091211 0.301478 15.801 4.79681 0 0 1
218 13 1 -0.050311 0.194275 16.5316 6.09797 0 0 1
219 13 2 -0.174311 -0.668938 15.7952 7.10745 0 0 1
220 13 2 -0.174311 -0.325916 15.6378 8.4471 0 0 1
221 13 1 -0.050311 0.842235 16.0912 9.1577 0 0 1
222 13 1 -0.091211 1.91982 15.0148 9.17829 0 0 1
223 13 3 0.033922 0.804576 14.8405 4.94131 0 0 1
224 13 3 0.033922 0.922071 16.2843 4.03666 0 0 1
225 13 3 0.033922 -0.69451 15.554 4.41795 0 0 1
226 13 3 0.046089 1.24209 16.4962 6.41005 0 0 1
227 13 3 0.046089 -0.279601 17.5066 5.9523 0 0 1
228 13 4 0.121889 -1.44204 15.1889 6.64631 0 0 1
229 13 4 0.121889 -0.832712 14.9059 9.06795 0 0 1
230 13 3 0.046089 0.616885 16.3959 10.1839 0 0 1
231 13 3 0.046089 1.14665 17.0414 8.70941 0 0 1
232 13 3 0.033922 2.20082 14.8407 8.13552 0 0 1
233 13 3 0.033922 2.80089 15.2835 9.76831 0 0 1
234 13 3 0.033922 1.58654 14.0878 9.65369 0 0 1
235 14 1 -0.091211 14.5854 8.99269 5.18842 0 0 0
236 14 1 -0.050311 14.6004 8.95573 6.69096 0 0 0
237 14 2 -0.174311 13.1878 8.98079 7.2406 0 0 0
238 14 2 -0.174311 12.7687 10.1189 7.90278 0 0 0
239 14 1 -0.050311 13.6523 11.2901 8.23249 0 0 0
240 14 1 -0.091211 12.9142 12.4711 8.67677 0 0 0
241 14 3 0.033922 14.2729 9.98737 4.85761 0 0 0
242 14 3 0.033922 13.9527 8.25439 4.68732 0 0 0
243 14 3 0.033922 15.6073 8.74696 4.8851 0 0 0
244 14 3 0.046089 15.0795 8.02976 7.02197 0 0 0
245 14 3 0.046089 15.2529 9.76517 7.03089 0 0 0
246 14 4 0.121889 12.5868 8.09896 7.04278 0 0 0
247 14 4 0.121889 11.7449 10.1552 8.26146 0 0 0
248 14 3 0.046089 14.2751 11.5753 7.3796 0 0 0
249 14 3 0.046089 14.3362 10.9916 9.03238 0 0 0
250 14 3 0.033922 13.6172 13.0266 9.30435 0 0 0
251 14 3 0.033922 12.6416 12.9338 7.72379 0 0 0
252 14 3 0.033922 11.9454 12.3238 9.16284 0 0 0
253 15 1 -0.091211 1.88814 1.78601 3.49513 0 1 1
254 15 1 -0.050311 2.73129 20.6788 2.96977 0 0 1
255 15 2 -0.174311 1.83275 19.653 2.33135 0 0 1
256 15 2 -0.174311 2.39896 18.3815 2.06592 0 0 1
257 15 1 -0.050311 3.85665 18.0197 2.1109 0 0 1
258 15 1 -0.091211 4.07944 17.0025 1.01663 0 0 1
259 15 3 0.033922 1.47218 2.42092 2.70744 0 1 1
260 15 3 0.033922 2.56338 2.4398 4.05474 0 1 1
261 15 3 0.033922 1.05349 1.36163 4.06066 0 1 1
262 15 3 0.046089 3.45543 1.11664 2.26265 0 1 1
263 15 3 0.046089 3.34234 20.2417 3.76483 0 0 1
264 15 4 0.121889 0.792047 19.951 2.25373 0 0 1
265 15 4 0.121889 1.74477 17.5925 1.70898 0 0 1
266 15 3 0.046089 4.12889 17.5975 3.08264 0 0 1
267 15 3 0.046089 4.47045 18.9037 1.91543 0 0 1
268 15 3 0.033922 3.24559 16.2948 0.99755 0 0 1
269 15 3 0.033922 4.07888 17.5349 0.0610316 0 0 1
270 15 3 0.033922 5.07469 16.5778 1.17666 0 0 1
271 16 1 -0.091211 8.52094 6.12973 4.73327 0 1 0
272 16 1 -0.050311 9.99437 5.90866 4.67733 0 1 0
273 16 2 -0.174311 10.7253 7.07586 3.94779 0 1 0
274 16 2 -0.174311 10.9136 7.14236 2.59557 0 1 0
275 16 1 -0.050311 10.3297 6.28504 1.6047 0 1 0
276 16 1 -0.091211 10.2086 7.12447 0.301011 0 1 0
277 16 3 0.033922 8.26236 6.66119 5.65377 0 1 0
278 16 3 0.033922 8.07881 5.13624 4.61483 0 1 0
279 16 3 0.033922 8.1105 6.7284 3.9149 0 1 0
280 16 3 0.046089 10.4782 5.69834 5.6356 0 1 0
281 16 3 0.046089 10.2099 4.97444 4.15068 0 1 0
282 16 4 0.121889 11.1672 7.85425 4.56157 0 1 0
283 16 4 0.121889 11.543 7.92589 2.18597 0 1 0
284 16 3 0.046089 9.33146 5.96563 1.91775 0 1 0
285 16 3 0.046089 10.9133 5.37506 1.43757 0 1 0
286 16 3 0.033922 11.1707 7.3143 -0.183816 0 1 0
287 16 3 0.033922 9.66396 6.49652 21.4584 0 1 -1
288 16 3 0.033922 9.60078 8.02534 0.425356 0 1 0
289 17 1 -0.091211 6.3383 11.5584 14.6136 0 0 0
290 17 1 -0.050311 7.30548 11.6617 15.7982 0 0 0
291 17 2 -0.174311 8.21193 12.8355 15.5981 0 0 0
292 17 2 -0.174311 8.29769 13.9375 16.4336 0 0 0
293 17 1 -0.050311 7.38665 14.3377 17.5215 0 0 0
294 17 1 -0.091211 8.0872 13.9748 18.9085 0 0 0
295 17 3 0.033922 5.65484 10.7118 14.726 0 0 0
296 17 3 0.033922 6.9461 11.4124 13.7158 0 0 0
297 17 3 0.033922 5.69238 12.4344 14.5038 0 0 0
298 17 3 0.046089 6.71225 11.8364 16.7005 0 0 0
299 17 3 0.046089 7.85344 10.715 15.8099 0 0 0
300 17 4 0.121889 8.89 12.6952 14.7623 0 0 0
301 17 4 0.121889 8.93791 14.726 16.0511 0 0 0
302 17 3 0.046089 6.41624 13.8354 17.5726 0 0 0
303 17 3 0.046089 7.17477 15.4094 17.4672 0 0 0
304 17 3 0.033922 8.63128 13.0259 18.9047 0 0 0
305 17 3 0.033922 8.77202 14.7676 19.2233 0 0 0
306 17 3 0.033922 7.31716 13.7818 19.6611 0 0 0
307 18 1 -0.091211 32.9001 4.10351 13.5813 -1 0 1
308 18 1 -0.050311 33.8587 5.2116 13.1127 -1 0 1
309 18 2 -0.174311 34.4286 5.99329 14.2573 -1 0 1
310 18 2 -0.174311 34.9354 7.24904 14.1438 -1 0 1
311 18 1 -0.050311 34.962 8.02006 12.8387 -1 0 1
312 18 1 -0.091211 36.2141 7.94963 12.1394 -1 0 1
313 18 3 0.033922 32.5118 3.62666 12.6766 -1 0 1
314 18 3 0.033922 32.0763 4.6182 14.0842 -1 0 1
315 18 3 0.033922 33.3353 3.33467 14.2263 -1 0 1
316 18 3 0.046089 34.6203 4.72121 12.4994 -1 0 1
317 18 3 0.046089 33.2479 5.90902 12.5321 -1 0 1
318 18 4 0.121889 34.5451 5.45335 15.1916 -1 0 1
319 18 4 0.121889 35.3495 7.77377 14.999 -1 0 1
320 18 3 0.046089 34.8696 9.07588 13.1093 -1 0 1
321 18 3 0.046089 34.113 7.8392 12.1731 -1 0 1
322 18 3 0.033922 37.0655 8.11622 12.8057 -1 0 1
323 18 3 0.033922 36.3039 6.91507 11.7956 -1 0 1
324 18 3 0.033922 36.3165 8.68991 11.3406 -1 0 1
325 19 1 -0.091211 8.52247 10.5372 6.01887 0 0 0
326 19 1 -0.050311 8.97061 10.9824 4.61053 0 0 0
327 19 2 -0.174311 10.4503 11.2154 4.61805 0 0 0
328 19 2 -0.174311 11.2708 11.1703 3.45418 0 0 0
329 19 1 -0.050311 10.8796 11.0937 2.03191 0 0 0
330 19 1 -0.091211 10.6703 12.4748 1.43919 0 0 0
331 19 3 0.033922 7.45494 10.3029 6.06398 0 0 0
332 19 3 0.033922 8.8251 11.2826 6.75998 0 0 0
333 19 3 0.033922 9.09239 9.62144 6.20105 0 0 0
334 19 3 0.046089 8.75645 10.2008 3.87585 0 0 0
335 19 3 0.046089 8.36853 11.8525 4.33318 0 0 0
336 19 4 0.121889 10.9618 11.3492 5.56591 0 0 0
337 19 4 0.121889 12.3417 11.2665 3.60189 0 0 0
338 19 3 0.046089 9.9576 10.5111 1.94808 0 0 0
339 19 3 0.046089 11.655 10.5801 1.45612 0 0 0
340 19 3 0.033922 11.6348 12.99 1.46852 0 0 0
341 19 3 0.033922 10.3717 12.3924 0.390036 0 0 0
342 19 3 0.033922 9.92388 13.0206 2.02366 0 0 0
343 20 1 -0.091211 8.15285 19.4168 10.0063 0 -1 0
344 20 1 -0.050311 8.67355 20.0238 8.72181 0 -1 0
345 20 2 -0.174311 10.0235 19.3761 8.38741 0 -1 0
346 20 2 -0.174311 10.8874 19.6569 7.33252 0 -1 0
347 20 1 -0.050311 10.5947 20.7524 6.36823 0 -1 0
348 20 1 -0.091211 11.2975 2.05962 6.80216 0 0 0
349 20 3 0.033922 8.95458 19.5032 10.7454 0 -1 0
350 20 3 0.033922 7.897 18.3632 9.86122 0 -1 0
351 20 3 0.033922 7.21635 19.8422 10.3785 0 -1 0
352 20 3 0.046089 7.9659 19.8648 7.90292 0 -1 0
353 20 3 0.046089 8.72367 1.13443 8.8247 0 0 0
354 20 4 0.121889 10.4263 18.6603 9.0968 0 -1 0
355 20 4 0.121889 11.8038 19.0857 7.22304 0 -1 0
356 20 3 0.046089 9.51058 0.921054 6.37247 0 0 0
357 20 3 0.046089 10.9142 20.4885 5.35584 0 -1 0
358 20 3 0.033922 11.0248 2.29716 7.83457 0 0 0
359 20 3 0.033922 12.3779 1.92758 6.69328 0 0 0
360 20 3 0.033922 10.9788 2.89504 6.17205 0 0 0
361 21 1 -0.091211 -1.36296 2.69974 -0.0648548 0 0 1
362 21 1 -0.050311 -0.626205 1.34585 -0.0172217 0 0 1
363 21 2 -0.174311 -1.26781 20.4282 1.01094 0 -1 1
364 21 2 -0.174311 -1.44403 19.0497 0.825897 0 -1 1
365 21 1 -0.050311 -0.875056 18.2669 21.5614 0 -1 0
366 21 1 -0.091211 -1.02692 16.7724 -0.0626601 0 -1 1
367 21 3 0.033922 -2.43523 2.6981 -0.281155 0 0 1
368 21 3 0.033922 -0.869857 3.37007 21.0936 0 0 0
369 21 3 0.033922 -1.2403 3.09187 0.948972 0 0 1
370 21 3 0.046089 -0.582724 0.858543 20.8728 0 0 0
371 21 3 0.046089 0.427491 1.55592 0.188059 0 0 1
372 21 4 0.121889 -1.4336 0.770416 2.03491 0 0 1
373 21 4 0.121889 -2.072 18.6292 1.60492 0 -1 1
374 21 3 0.046089 0.13112 18.5932 21.2827 0 -1 0
375 21 3 0.046089 -1.39865 18.3917 20.6091 0 -1 0
376 21 3 0.033922 -2.02155 16.5655 0.342925 0 -1 1
377 21 3 0.033922 -0.898298 16.2657 20.8449 0 -1 0
378 21 3 0.033922 -0.253954 16.4411 0.636857 0 -1 1
379 22 1 -0.091211 7.80638 18.0099 15.6367 0 -1 0
380 22 1 -0.050311 6.56626 18.6814 16.2455 0 -1 0
381 22 2 -0.174311 5.6397 17.7457 16.9498 0 -1 0
382 22 2 -0.174311 5.49393 17.5979 18.3451 0 -1 0
383 22 1 -0.050311 6.15466 18.3255 19.5142 0 -1 0
384 22 1 -0.091211 6.82878 17.3079 20.4801 0 -1 0
385 22 3 0.033922 8.48757 18.7917 15.2884 0 -1 0
386 22 3 0.033922 7.55101 17.3934 14.7699 0 -1 0
387 22 3 0.033922 8.1829 17.3635 16.4348 0 -1 0
388 22 3 0.046089 6.90451 19.4924 16.897 0 -1 0
389 22 3 0.046089 5.9126 19.1391 15.4972 0 -1 0
390 22 4 0.121889 4.96278 17.0759 16.4292 0 -1 0
391 22 4 0.121889 4.69626 16.9183 18.6274 0 -1 0
392 22 3 0.046089 5.34398 18.7908 20.0823 0 -1 0
393 22 3 0.046089 6.86916 19.0955 19.2089 0 -1 0
394 22 3 0.033922 5.99496 16.6842 20.8152 0 -1 0
395 22 3 0.033922 7.55023 16.7123 19.9132 0 -1 0
396 22 3 0.033922 7.325 17.7965 21.3237 0 -1 0
397 23 1 -0.091211 -0.126095 6.51598 1.63127 0 0 0
398 23 1 -0.050311 0.928122 6.79378 2.75537 0 0 0
399 23 2 -0.174311 0.268752 7.21053 4.12389 0 0 0
400 23 2 -0.174311 0.445275 8.43541 4.67336 0 0 0
401 23 1 -0.050311 1.07695 9.63172 4.03514 0 0 0
402 23 1 -0.091211 2.58949 9.4438 4.30299 0 0 0
403 23 3 0.033922 0.397918 6.34563 0.686262 0 0 0
404 23 3 0.033922 -0.834241 7.33518 1.47646 0 0 0
405 23 3 0.033922 -0.736136 5.64135 1.87499 0 0 0
406 23 3 0.046089 1.54427 5.9123 2.95508 0 0 0
407 23 3 0.046089 1.56921 7.62568 2.44963 0 0 0
408 23 4 0.121889 -0.196785 6.50516 4.80484 0 0 0
409 23 4 0.121889 0.224304 8.6044 5.72248 0 0 0
410 23 3 0.046089 0.748787 10.5477 4.53496 0 0 0
411 23 3 0.046089 0.901424 9.76668 2.96386 0 0 0
412 23 3 0.033922 2.90201 8.61487 3.6613 0 0 0
413 23 3 0.033922 3.18329 10.3233 4.03769 0 0 0
414 23 3 0.033922 2.74425 9.24516 5.36754 0 0 0
415 24 1 -0.091211 6.85661 12.4055 1.40607 0 0 0
416 24 1 -0.050311 6.3704 13.0165 2.7359 0 0 0
417 24 2 -0.174311 5.18206 13.8342 2.5707 0 0 0
418 24 2 -0.174311 4.3005 14.0644 3.60301 0 0 0
419 24 1 -0.050311 4.66272 13.7866 5.09194 0 0 0
420 24 1 -0.091211 4.68193 15.1078 5.83963 0 0 0
421 24 3 0.033922 5.94783 12.052 0.910393 0 0 0
422 24 3 0.033922 7.47034 11.5844 1.78778 0 0 0
423 24 3 0.033922 7.38033 13.0466 0.690981 0 0 0
424 24 3 0.046089 6.14862 12.1906 3.41797 0 0 0
425 24 3 0.046089 7.18867 13.5416 3.23717 0 0 0
426 24 4 0.121889 5.04608 14.3868 1.64646 0 0 0
427 24 4 0.121889 3.45945 14.7329 3.44935 0 0 0
428 24 3 0.046089 5.64012 13.3355 5.28624 0 0 0
429 24 3 0.046089 3.99629 13.0545 5.55722 0 0 0
430 24 3 0.033922 5.52092 15.7401 5.53501 0 0 0
431 24 3 0.033922 3.78695 15.7145 5.67409 0 0 0
432 24 3 0.033922 4.71433 15.046 6.93134 0 0 0
433 25 1 -0.091211 5.48902 7.60697 13.8 0 0 0
434 25 1 -0.050311 4.27425 6.66775 13.578 0 0 0
435 25 2 -0.174311 3.13158 7.50261 13.059 0 0 0
436 25 2 -0.174311 2.00904 7.872 13.8037 0 0 0
437 25 1 -0.050311 1.78342 7.75548 15.2413 0 0 0
438 25 1 -0.091211 1.27117 6.26161 15.5195 0 0 0
439 25 3 0.033922 5.82941 7.97532 12.8278 0 0 0
440 25 3 0.033922 6.29717 7.16395 14.3893 0 0 0
441 25 3 0.033922 5.18753 8.49485 14.3633 0 0 0
442 25 3 0.046089 4.57703 5.8835 12.8781 0 0 0
443 25 3 0.046089 4.04074 6.19826 14.538 0 0 0
444 25 4 0.121889 3.14602 7.64296 11.9828 0 0 0
445 25 4 0.121889 1.29088 8.44511 13.226 0 0 0
446 25 3 0.046089 1.11607 8.47432 15.7255 0 0 0
447 25 3 0.046089 2.79112 7.82722 15.6608 0 0 0
448 25 3 0.033922 1.8597 5.51422 14.9795 0 0 0
449 25 3 0.033922 1.38033 6.09418 16.595 0 0 0
450 25 3 0.033922 0.23628 6.17502 15.1759 0 0 0
451 26 1 -0.091211 2.31793 15.198 18.9167 0 -1 0
452 26 1 -0.050311 2.12919 14.7138 20.3057 0 -1 0
453 26 2 -0.174311 1.88661 13.2442 20.5456 0 -1 0
454 26 2 -0.174311 1.77049 12.6551 -0.0470592 0 -1 1
455 26 1 -0.050311 1.66255 13.4684 1.21938 0 -1 1
456 26 1 -0.091211 0.206454 13.5143 1.83164 0 -1 1
457 26 3 0.033922 3.2672 14.8251 18.5212 0 -1 0
458 26 3 0.033922 2.36575 16.2907 18.8973 0 -1 0
459 26 3 0.033922 1.50824 14.8465 18.2706 0 -1 0
460 26 3 0.046089 3.06451 14.8642 20.8526 0 -1 0
461 26 3 0.046089 1.29856 15.2916 20.7213 0 -1 0
462 26 4 0.121889 1.95003 12.6416 19.6452 0 -1 0
463 26 4 0.121889 1.63113 11.5788 -0.0396379 0 -1 1
464 26 3 0.046089 1.87974 14.5215 1.01818 0 -1 1
465 26 3 0.046089 2.44966 13.011 1.82585 0 -1 1
466 26 3 0.033922 0.0988442 14.3439 2.53646 0 -1 1
467 26 3 0.033922 -0.511063 13.7412 1.03775 0 -1 1
468 26 3 0.033922 -0.00418878 12.5289 2.25726 0 -1 1
469 27 1 -0.091211 14.8148 16.0988 21.2844 0 0 -1
470 27 1 -0.050311 14.7294 14.8653 20.4338 0 0 -1
471 27 2 -0.174311 14.8108 15.1534 18.9662 0 0 -1
472 27 2 -0.174311 16.0238 15.2577 18.2827 0 0 -1
473 27 1 -0.050311 17.3798 15.3716 19.0202 0 0 -1
474 27 1 -0.091211 18.492 14.8008 18.1076 0 0 -1
475 27 3 0.033922 15.3237 15.8913 0.361701 0 0 0
476 27 3 0.033922 13.8246 16.5087 -0.364894 0 0 0
477 27 3 0.033922 15.3246 16.8591 20.6854 0 0 -1
478 27 3 0.046089 15.4972 14.1118 20.6317 0 0 -1
479 27 3 0.046089 13.7593 14.3963 20.6219 0 0 -1
480 27 4 0.121889 14.0375 15.2963 18.2181 0 0 -1
481 27 4 0.121889 15.8985 15.4351 17.2192 0 0 -1
482 27 3 0.046089 17.3411 14.7443 19.9155 0 0 -1
483 27 3 0.046089 17.687 16.4082 19.186 0 0 -1
484 27 3 0.033922 18.6543 15.5027 17.2844 0 0 -1
485 27 3 0.033922 19.4212 14.7685 18.6839 0 0 -1
486 27 3 0.033922 18.3678 13.7868 17.7168 0 0 -1
487 28 1 -0.091211 10.2729 16.4746 -0.130581 0 -1 0
488 28 1 -0.050311 10.5849 17.8508 0.407419 0 -1 0
489 28 2 -0.174311 11.1423 17.758 1.85028 0 -1 0
490 28 2 -0.174311 10.3118 17.8514 2.98364 0 -1 0
491 28 1 -0.050311 8.82318 18.211 2.9415 0 -1 0
492 28 1 -0.091211 8.09325 17.7012 4.14784 0 -1 0
493 28 3 0.033922 10.0541 16.5304 20.6675 0 -1 -1
494 28 3 0.033922 9.40861 16.0697 0.403803 0 -1 0
495 28 3 0.033922 11.0737 15.7651 0.0973191 0 -1 0
496 28 3 0.046089 11.3177 18.2738 -0.285837 0 -1 0
497 28 3 0.046089 9.70104 18.486 0.29837 0 -1 0
498 28 4 0.121889 12.2125 17.6735 2.00961 0 -1 0
499 28 4 0.121889 10.7745 17.7734 3.96235 0 -1 0
500 28 3 0.046089 8.44175 17.799 2.00267 0 -1 0
501 28 3 0.046089 8.79451 19.3016 2.86152 0 -1 0
502 28 3 0.033922 7.01845 17.5554 4.00608 0 -1 0
503 28 3 0.033922 8.5323 16.775 4.52971 0 -1 0
504 28 3 0.033922 8.08233 18.5161 4.87755 0 -1 0
505 29 1 -0.091211 7.34576 8.71586 1.94783 0 0 0
506 29 1 -0.050311 6.23259 7.66179 1.80038 0 0 0
507 29 2 -0.174311 6.38035 6.75235 0.595872 0 0 0
508 29 2 -0.174311 5.41078 5.83377 0.26542 0 0 0
509 29 1 -0.050311 4.09018 5.52329 0.94934 0 0 0
510 29 1 -0.091211 4.2389 4.57975 2.11544 0 0 0
511 29 3 0.033922 7.50606 9.25827 1.01149 0 0 0
512 29 3 0.033922 8.25116 8.24833 2.3456 0 0 0
513 29 3 0.033922 7.03396 9.41011 2.73357 0 0 0
514 29 3 0.046089 6.21424 7.033 2.69532 0 0 0
515 29 3 0.046089 5.27932 8.16648 1.61838 0 0 0
516 29 4 0.121889 7.25156 6.85626 -0.0430218 0 0 0
517 29 4 0.121889 5.68989 5.30609 21.2274 0 0 -1
518 29 3 0.046089 3.46665 5.04055 0.191209 0 0 0
519 29 3 0.046089 3.6095 6.45921 1.24854 0 0 0
520 29 3 0.033922 4.77045 3.68197 1.78685 0 0 0
521 29 3 0.033922 4.8358 5.0385 2.90908 0 0 0
522 29 3 0.033922 3.27044 4.34603 2.56714 0 0 0
523 30 1 -0.091211 5.57856 7.45674 6.84919 0 1 1
524 30 1 -0.050311 4.75865 6.22448 7.0931 0 1 1
525 30 2 -0.174311 3.82893 5.81228 6.01102 0 1 1
526 30 2 -0.174311 2.59433 5.20529 6.23431 0 1 1
527 30 1 -0.050311 1.92831 5.00853 7.61378 0 1 1
528 30 1 -0.091211 1.96694 3.47211 7.90202 0 1 1
529 30 3 0.033922 5.10094 8.43925 6.79377 0 1 1
530 30 3 0.033922 6.16832 7.28395 5.94423 0 1 1
531 30 3 0.033922 6.41659 7.53452 7.54794 0 1 1
532 30 3 0.046089 5.43248 5.37691 7.24836 0 1 1
533 30 3 0.046089 4.17853 6.41048 8.00167 0 1 1
534 30 4 0.121889 4.17851 6.08384 5.02002 0 1 1
535 30 4 0.121889 1.99597 5.09147 5.33596 0 1 1
536 30 3 0.046089 0.882877 5.32798 7.65338 0 1 1
537 30 3 0.046089 2.49553 5.59392 8.34329 0 1 1
538 30 3 0.033922 1.54103 3.29935 8.8947 0 1 1
539 30 3 0.033922 1.46328 2.84413 7.16137 0 1 1
540 30 3 0.033922 3.03378 3.23442 7.85851 0 1 1
541 31 1 -0.091211 21.4467 1.28154 17.2804 0 1 0
542 31 1 -0.050311 22.5336 20.2209 16.8831 0 0 0
543 31 2 -0.174311 22.013 19.4347 15.6613 0 0 0
544 31 2 -0.174311 22.4334 19.7407 14.375 0 0 0
545 31 1 -0.050311 23.0599 1.04933 13.9495 0 1 0
546 31 1 -0.091211 23.0362 1.014 12.3591 0 1 0
547 31 3 0.033922 21.3072 2.06225 16.527 0 1 0
548 31 3 0.033922 21.7821 1.71074 18.229 0 1 0
549 31 3 0.033922 20.4691 20.7978 17.4493 0 0 0
550 31 3 0.046089 23.3934 0.833624 16.5526 0 1 0
551 31 3 0.046089 22.7464 19.6061 17.7625 0 0 0
552 31 4 0.121889 21.4437 18.5235 15.8143 0 0 0
553 31 4 0.121889 22.02 19.0268 13.6698 0 0 0
554 31 3 0.046089 24.1101 1.08126 14.2539 0 1 0
555 31 3 0.046089 22.4824 1.91293 14.2919 0 1 0
556 31 3 0.033922 23.7798 20.3081 11.9385 0 0 0
557 31 3 0.033922 22.1215 20.6417 11.8714 0 0 0
558 31 3 0.033922 23.3179 2.01399 12.0168 0 1 0
559 32 1 -0.091211 17.8435 2.0218 3.44028 0 1 0
560 32 1 -0.050311 16.5304 2.47398 2.77194 0 1 0
561 32 2 -0.174311 16.5491 4.00435 2.77285 0 1 0
562 32 2 -0.174311 15.7185 4.86857 3.40807 0 1 0
563 32 1 -0.050311 14.707 4.49692 4.52605 0 1 0
564 32 1 -0.091211 13.2894 4.36814 3.9766 0 1 0
565 32 3 0.033922 17.8067 0.938946 3.59054 0 1 0
566 32 3 0.033922 18.0626 2.50538 4.39672 0 1 0
567 32 3 0.033922 18.687 2.30366 2.80332 0 1 0
568 32 3 0.046089 16.5058 2.10094 1.74388 0 1 0
569 32 3 0.046089 15.6727 2.1362 3.3608 0 1 0
570 32 4 0.121889 17.3899 4.53065 2.3324 0 1 0
571 32 4 0.121889 15.8946 5.93685 3.33276 0 1 0
572 32 3 0.046089 14.6425 5.24866 5.31808 0 1 0
573 32 3 0.046089 14.9404 3.5112 4.93886 0 1 0
574 32 3 0.033922 12.7485 4.10726 4.89097 0 1 0
575 32 3 0.033922 12.9687 5.29289 3.48818 0 1 0
576 32 3 0.033922 13.111 3.52437 3.3037 0 1 0
577 33 1 -0.091211 12.2704 9.86048 13.7365 0 0 0
578 33 1 -0.050311 13.0279 10.5453 12.5707 0 0 0
579 33 2 -0.174311 14.5211 10.231 12.6881 0 0 0
580 33 2 -0.174311 15.3889 11.1154 13.2947 0 0 0
581 33 1 -0.050311 14.9731 12.3078 14.0872 0 0 0
582 33 1 -0.091211 15.8648 12.5332 15.2763 0 0 0
583 33 3 0.033922 12.5292 10.162 14.7557 0 0 0
584 33 3 0.033922 12.5281 8.79742 13.7416 0 0 0
585 33 3 0.033922 11.189 9.9993 13.648 0 0 0
586 33 3 0.046089 12.6298 10.0691 11.6699 0 0 0
587 33 3 0.046089 12.8089 11.6167 12.5952 0 0 0
588 33 4 0.121889 14.8942 9.27929 12.3234 0 0 0
589 33 4 0.121889 16.4182 10.7856 13.1966 0 0 0
590 33 3 0.046089 13.9962 12.1025 14.5344 0 0 0
591 33 3 0.046089 14.91 13.1657 13.4115 0 0 0
592 33 3 0.033922 15.9559 11.6441 15.907 0 0 0
593 33 3 0.033922 16.803 13.0508 15.0565 0 0 0
594 33 3 0.033922 15.3948 13.2954 15.9046 0 0 0
595 34 1 -0.091211 15.4561 1.66546 7.50622 0 1 0
596 34 1 -0.050311 14.9856 2.68689 8.45521 0 1 0
597 34 2 -0.174311 15.2815 2.19331 9.86549 0 1 0
598 34 2 -0.174311 14.4538 1.32112 10.5797 0 1 0
599 34 1 -0.050311 13.1385 20.723 10.141 0 0 0
600 34 1 -0.091211 12.119 1.18621 11.2682 0 1 0
601 34 3 0.033922 16.5436 1.71972 7.40113 0 1 0
602 34 3 0.033922 14.9992 1.85487 6.53053 0 1 0
603 34 3 0.033922 15.1494 20.6485 7.84413 0 0 0
604 34 3 0.046089 15.5207 3.59015 8.14805 0 1 0
605 34 3 0.046089 13.9122 2.86306 8.34016 0 1 0
606 34 4 0.121889 16.2133 2.55693 10.2868 0 1 0
607 34 4 0.121889 14.8154 1.08581 11.5757 0 1 0
608 34 3 0.046089 13.2509 19.6392 10.0443 0 0 0
609 34 3 0.046089 13.0235 1.16149 9.13572 0 1 0
610 34 3 0.033922 12.564 0.885869 12.2212 0 1 0
611 34 3 0.033922 11.943 2.25856 11.1432 0 1 0
612 34 3 0.033922 11.1501 20.6626 11.1836 0 0 0
613 35 1 -0.091211 36.1214 7.43853 17.6243 -1 0 0
614 35 1 -0.050311 36.5648 7.58419 19.058 -1 0 0
615 35 2 -0.174311 36.3177 8.97293 19.5563 -1 0 0