ITEM: TIMESTEP
300
ITEM: NUMBER OF ATOMS
4800
ITEM: BOX BOUNDS xy xz yz pp pp pp
-6.6830916618559506e+00 5.3607454861856766e+01 0.0000000000000000e+00
-3.5379142921784350e+00 3.7072526292178367e+01 0.0000000000000000e+00
-1.1754783897894914e+00 2.8149793109789471e+01 0.0000000000000000e+00
ITEM: ATOMS id mol type q x y z ix iy iz
1 1 1 -0.0639002 -1.30883 -1.06283 27.7975 0 0 -1
2 1 2 -0.1737 -2.36996 -0.0705793 -1.20871 0 0 0
3 1 2 -0.1737 -3.59431 -0.627131 27.8463 0 0 -1
4 1 1 -0.0639002 -4.78176 0.0736915 -1.06407 0 0 0
5 1 3 0.0403668 -0.32556 -0.591671 27.7092 0 0 -1
6 1 3 0.0403668 -1.63274 -1.57224 26.8851 0 0 -1
7 1 3 0.0403668 -1.11789 -1.84977 -0.792269 0 0 0
8 1 4 0.1165 -2.41164 0.661225 -0.408183 0 0 0
9 1 4 0.1165 -3.76542 -1.47182 27.1865 0 0 -1
10 1 3 0.0403668 -4.43282 1.06023 -0.745207 0 0 0
11 1 3 0.0403668 -5.48773 0.134605 27.4278 0 0 -1
12 1 3 0.0403668 -5.26197 -0.280037 -0.147011 0 0 0
13 2 1 -0.0639002 -2.81814 -2.7047 4.15181 0 0 0
14 2 2 -0.1737 -2.10554 -1.42837 4.44147 0 0 0
15 2 2 -0.1737 -2.59978 -0.344979 3.95094 0 0 0
16 2 1 -0.0639002 -3.59954 -0.313465 2.8917 0 0 0
17 2 3 0.0403668 -3.0778 -2.94027 5.18808 0 0 0
18 2 3 0.0403668 -2.09301 -3.34658 3.64305 0 0 0
19 2 3 0.0403668 -3.75031 -2.6701 3.58041 0 0 0
20 2 4 0.1165 -1.15296 -1.3899 4.96025 0 0 0
21 2 4 0.1165 -2.11589 0.602212 4.16712 0 0 0
22 2 3 0.0403668 -3.25328 0.186825 1.98255 0 0 0
23 2 3 0.0403668 -4.11086 -1.20801 2.52426 0 0 0
24 2 3 0.0403668 -4.41948 0.278102 3.30929 0 0 0
25 3 1 -0.0639002 -2.56526 -2.20953 8.74884 0 0 0
26 3 2 -0.1737 -2.80955 -0.784914 8.48014 0 0 0
27 3 2 -0.1737 -4.04399 -0.254635 8.18384 0 0 0
28 3 1 -0.0639002 -5.32018 -0.995861 7.9158 0 0 0
29 3 3 0.0403668 -2.13113 -2.52664 7.79611 0 0 0
30 3 3 0.0403668 -3.47458 -2.76542 8.99533 0 0 0
31 3 3 0.0403668 -1.94701 -2.0464 9.63646 0 0 0
32 3 4 0.1165 -2.03636 -0.027019 8.55612 0 0 0
33 3 4 0.1165 -3.97294 0.827414 8.13688 0 0 0
34 3 3 0.0403668 -5.92295 -1.29924 8.77682 0 0 0
35 3 3 0.0403668 -5.87243 -0.353511 7.22362 0 0 0
36 3 3 0.0403668 -5.2128 -1.95702 7.40456 0 0 0
37 4 1 -0.0639002 -1.01259 -0.174939 13.7819 0 0 0
38 4 2 -0.1737 -2.1414 -0.908188 13.2288 0 0 0
39 4 2 -0.1737 -3.41023 -0.397878 13.4595 0 0 0
40 4 1 -0.0639002 -3.62016 0.690606 14.381 0 0 0
41 4 3 0.0403668 -0.168484 -0.418031 13.13 0 0 0
42 4 3 0.0403668 -0.999992 -0.373203 14.8577 0 0 0
43 4 3 0.0403668 -1.2625 0.873585 13.5953 0 0 0
44 4 4 0.1165 -1.98155 -1.54196 12.3622 0 0 0
45 4 4 0.1165 -4.28431 -0.896038 13.0523 0 0 0
46 4 3 0.0403668 -4.60103 0.61801 14.8598 0 0 0
47 4 3 0.0403668 -2.95468 0.616194 15.2461 0 0 0
48 4 3 0.0403668 -3.44095 1.56918 13.7544 0 0 0
49 5 1 -0.0639002 -0.928655 -1.90003 18.1352 0 0 0
50 5 2 -0.1737 -2.04038 -1.23394 17.7051 0 0 0
51 5 2 -0.1737 -3.28124 -1.45818 18.2902 0 0 0
52 5 1 -0.0639002 -4.38743 -0.65861 18.1842 0 0 0
53 5 3 0.0403668 -0.0608096 -1.32062 18.4635 0 0 0
54 5 3 0.0403668 -0.618008 -2.42541 17.2274 0 0 0
55 5 3 0.0403668 -1.29954 -2.56374 18.9218 0 0 0
56 5 4 0.1165 -2.04398 -0.32217 17.1162 0 0 0
57 5 4 0.1165 -3.40131 -2.27283 18.9974 0 0 0
58 5 3 0.0403668 -4.90092 -0.841374 17.2357 0 0 0
59 5 3 0.0403668 -5.1705 -0.652194 18.948 0 0 0
60 5 3 0.0403668 -4.14417 0.386422 17.9711 0 0 0
61 6 1 -0.0639002 -0.815682 -1.98737 23.1766 0 0 0
62 6 2 -0.1737 -1.73918 -1.73407 21.9705 0 0 0
63 6 2 -0.1737 -3.03359 -1.37427 22.1393 0 0 0
64 6 1 -0.0639002 -3.83749 -0.871936 23.2024 0 0 0
65 6 3 0.0403668 -0.874422 -1.1741 23.9059 0 0 0
66 6 3 0.0403668 0.143937 -2.27176 22.7351 0 0 0
67 6 3 0.0403668 -1.13324 -2.89127 23.7046 0 0 0
68 6 4 0.1165 -1.29414 -1.63649 20.9853 0 0 0
69 6 4 0.1165 -3.57019 -1.23719 21.2058 0 0 0
70 6 3 0.0403668 -3.14134 -0.843271 24.0458 0 0 0
71 6 3 0.0403668 -4.32498 0.0962855 23.0555 0 0 0
72 6 3 0.0403668 -4.61388 -1.63968 23.2688 0 0 0
73 7 1 -0.0639002 -0.966051 3.15494 1.54982 0 0 0
74 7 2 -0.1737 -1.5839 4.11724 0.601866 0 0 0
75 7 2 -0.1737 -2.85627 4.56378 0.839645 0 0 0
76 7 1 -0.0639002 -3.93534 3.94212 1.54996 0 0 0
77 7 3 0.0403668 -0.161121 2.88918 0.85836 0 0 0
78 7 3 0.0403668 -1.55781 2.25456 1.73901 0 0 0
79 7 3 0.0403668 -0.527967 3.63509 2.42976 0 0 0
80 7 4 0.1165 -1.06343 4.45102 -0.290215 0 0 0
81 7 4 0.1165 -3.16133 5.318 0.121174 0 0 0
82 7 3 0.0403668 -4.78444 3.66229 0.919576 0 0 0
83 7 3 0.0403668 -3.65082 2.96291 1.94605 0 0 0
84 7 3 0.0403668 -4.12743 4.59739 2.40464 0 0 0
85 8 1 -0.0639002 -1.33904 4.20398 5.90937 0 0 0
86 8 2 -0.1737 -2.02831 5.19225 5.16877 0 0 0
87 8 2 -0.1737 -3.1584 5.67335 5.51072 0 0 0
88 8 1 -0.0639002 -3.93346 5.34033 6.64992 0 0 0
89 8 3 0.0403668 -0.976685 4.62789 6.85051 0 0 0
90 8 3 0.0403668 -0.469695 3.82395 5.36489 0 0 0
91 8 3 0.0403668 -1.95353 3.30001 5.95308 0 0 0
92 8 4 0.1165 -1.72096 5.45693 4.16199 0 0 0
93 8 4 0.1165 -3.59963 6.32367 4.76204 0 0 0
94 8 3 0.0403668 -3.43523 5.58309 7.59309 0 0 0
95 8 3 0.0403668 -4.73909 6.07814 6.59315 0 0 0
96 8 3 0.0403668 -4.44456 4.3733 6.6323 0 0 0
97 9 1 -0.0639002 -1.49691 3.59941 9.484 0 0 0
98 9 2 -0.1737 -2.68769 3.21539 10.3702 0 0 0
99 9 2 -0.1737 -3.79103 3.95295 10.8342 0 0 0
100 9 1 -0.0639002 -4.94488 3.70729 11.546 0 0 0
101 9 3 0.0403668 -1.3923 2.95073 8.60934 0 0 0
102 9 3 0.0403668 -0.686309 3.39201 10.1887 0 0 0
103 9 3 0.0403668 -1.38454 4.64926 9.19785 0 0 0
104 9 4 0.1165 -2.59845 2.21016 10.7697 0 0 0
105 9 4 0.1165 -3.78879 4.85841 10.2357 0 0 0
106 9 3 0.0403668 -5.79785 3.90822 10.8912 0 0 0
107 9 3 0.0403668 -4.79978 2.67832 11.8879 0 0 0
108 9 3 0.0403668 -5.15457 4.15775 12.5206 0 0 0
109 10 1 -0.0639002 -1.12348 3.12998 15.5272 0 0 0
110 10 2 -0.1737 -2.26818 3.61572 16.2775 0 0 0
111 10 2 -0.1737 -3.29439 4.31048 15.764 0 0 0
112 10 1 -0.0639002 -4.5253 4.68759 16.5991 0 0 0
113 10 3 0.0403668 -0.434261 3.42552 16.3237 0 0 0
114 10 3 0.0403668 -0.817315 3.8489 14.7617 0 0 0
115 10 3 0.0403668 -1.1303 2.06226 15.2893 0 0 0
116 10 4 0.1165 -2.56224 3.18364 17.2288 0 0 0
117 10 4 0.1165 -3.1185 4.70463 14.7681 0 0 0
118 10 3 0.0403668 -4.53147 4.58662 17.6884 0 0 0
119 10 3 0.0403668 -4.95986 5.64797 16.3067 0 0 0
120 10 3 0.0403668 -5.28612 3.92014 16.4294 0 0 0
121 11 1 -0.0639002 -3.15057 2.26013 21.4652 0 0 0
122 11 2 -0.1737 -2.9319 3.72368 21.5775 0 0 0
123 11 2 -0.1737 -3.85053 4.66012 21.476 0 0 0
124 11 1 -0.0639002 -5.16594 4.44269 20.9143 0 0 0
125 11 3 0.0403668 -4.22781 2.09682 21.5625 0 0 0
126 11 3 0.0403668 -2.62768 1.87391 22.3451 0 0 0
127 11 3 0.0403668 -2.76018 1.87356 20.5192 0 0 0
128 11 4 0.1165 -1.93129 4.117 21.726 0 0 0
129 11 4 0.1165 -3.44193 5.66456 21.429 0 0 0
130 11 3 0.0403668 -5.4599 5.32756 20.3422 0 0 0
131 11 3 0.0403668 -5.23877 3.57389 20.2536 0 0 0
132 11 3 0.0403668 -5.95464 4.19269 21.6299 0 0 0
133 12 1 -0.0639002 -1.54561 2.8716 25.8355 0 0 0
134 12 2 -0.1737 -2.16709 4.07637 25.484 0 0 0
135 12 2 -0.1737 -3.48814 4.17366 25.3961 0 0 0
136 12 1 -0.0639002 -4.5542 3.14765 25.4672 0 0 0
137 12 3 0.0403668 -2.22929 2.06 26.1011 0 0 0
138 12 3 0.0403668 -0.82519 3.03033 26.6433 0 0 0
139 12 3 0.0403668 -0.834524 2.66501 25.0303 0 0 0
140 12 4 0.1165 -1.61851 4.92921 25.097 0 0 0
141 12 4 0.1165 -3.83105 5.19609 25.2732 0 0 0
142 12 3 0.0403668 -5.07953 3.1514 24.5077 0 0 0
143 12 3 0.0403668 -4.15719 2.13281 25.563 0 0 0
144 12 3 0.0403668 -5.18951 3.17895 26.3572 0 0 0
145 13 1 -0.0639002 -1.2153 8.59439 2.97558 0 0 0
146 13 2 -0.1737 -2.53171 8.08806 2.4032 0 0 0
147 13 2 -0.1737 -3.82816 8.22428 2.92318 0 0 0
148 13 1 -0.0639002 -4.22296 9.08359 4.12086 0 0 0
149 13 3 0.0403668 -1.40784 8.89708 4.00907 0 0 0
150 13 3 0.0403668 -0.792704 9.44655 2.43527 0 0 0
151 13 3 0.0403668 -0.540799 7.74056 2.86296 0 0 0
152 13 4 0.1165 -2.51241 7.46572 1.51411 0 0 0
153 13 4 0.1165 -4.58818 7.70726 2.34603 0 0 0
154 13 3 0.0403668 -4.9195 8.47702 4.70701 0 0 0
155 13 3 0.0403668 -3.50641 9.50557 4.83162 0 0 0
156 13 3 0.0403668 -4.86842 9.90609 3.79912 0 0 0
157 14 1 -0.0639002 -2.29932 8.66507 8.22559 0 0 0
158 14 2 -0.1737 -3.24831 7.98889 9.17136 0 0 0
159 14 2 -0.1737 -4.64832 8.04461 9.09744 0 0 0
160 14 1 -0.0639002 -5.45359 9.21493 8.69918 0 0 0
161 14 3 0.0403668 -2.52735 8.13656 7.2953 0 0 0
162 14 3 0.0403668 -1.23735 8.63711 8.48637 0 0 0
163 14 3 0.0403668 -2.6153 9.70458 8.09799 0 0 0
164 14 4 0.1165 -2.84468 7.10975 9.66357 0 0 0
165 14 4 0.1165 -5.24155 7.27535 9.58157 0 0 0
166 14 3 0.0403668 -5.86171 9.49122 9.67582 0 0 0
167 14 3 0.0403668 -4.73989 9.95296 8.32155 0 0 0
168 14 3 0.0403668 -6.22654 9.13319 7.92941 0 0 0
169 15 1 -0.0639002 -2.27783 6.9741 13.8721 0 0 0
170 15 2 -0.1737 -3.07447 8.05305 13.1226 0 0 0
171 15 2 -0.1737 -4.45649 8.23176 13.2881 0 0 0
172 15 1 -0.0639002 -5.42172 7.15531 13.8168 0 0 0
173 15 3 0.0403668 -2.88412 6.71378 14.7447 0 0 0
174 15 3 0.0403668 -1.23052 7.24527 14.034 0 0 0
175 15 3 0.0403668 -2.24581 6.19452 13.1053 0 0 0
176 15 4 0.1165 -2.64725 8.59646 12.2857 0 0 0
177 15 4 0.1165 -4.80607 9.08819 12.7202 0 0 0
178 15 3 0.0403668 -4.88979 6.2072 13.9385 0 0 0
179 15 3 0.0403668 -5.97337 7.45009 14.7144 0 0 0
180 15 3 0.0403668 -6.29982 7.009 13.1811 0 0 0
181 16 1 -0.0639002 -2.49195 7.05558 19.1418 0 0 0
182 16 2 -0.1737 -1.84278 8.44376 18.712 0 0 0
183 16 2 -0.1737 -2.54578 9.39048 17.9222 0 0 0
184 16 1 -0.0639002 -3.9155 9.07617 17.316 0 0 0
185 16 3 0.0403668 -2.09654 6.21487 18.5642 0 0 0
186 16 3 0.0403668 -3.58081 7.02893 19.0407 0 0 0
187 16 3 0.0403668 -2.15889 7.04608 20.1838 0 0 0
188 16 4 0.1165 -0.778847 8.61706 18.8383 0 0 0
189 16 4 0.1165 -2.01423 10.1733 17.3905 0 0 0
190 16 3 0.0403668 -4.50503 8.29895 17.8111 0 0 0
191 16 3 0.0403668 -4.65392 9.88183 17.3637 0 0 0
192 16 3 0.0403668 -3.85497 8.8608 16.2452 0 0 0
193 17 1 -0.0639002 -1.67351 7.45225 23.5 0 0 0
194 17 2 -0.1737 -2.00569 8.82975 23.9601 0 0 0
195 17 2 -0.1737 -2.95127 9.61308 23.2238 0 0 0
196 17 1 -0.0639002 -3.9423 9.21876 22.2287 0 0 0
197 17 3 0.0403668 -1.76235 6.85473 24.4121 0 0 0
198 17 3 0.0403668 -0.644818 7.63361 23.1752 0 0 0
199 17 3 0.0403668 -2.28154 6.81757 22.8488 0 0 0
200 17 4 0.1165 -1.69275 9.25186 24.9099 0 0 0
201 17 4 0.1165 -3.22709 10.5668 23.6626 0 0 0
202 17 3 0.0403668 -4.98604 9.54615 22.2278 0 0 0
203 17 3 0.0403668 -3.65139 9.5973 21.2444 0 0 0
204 17 3 0.0403668 -3.96352 8.12929 22.1323 0 0 0
205 18 1 -0.0639002 -1.35269 7.44437 28.1092 0 0 0
206 18 2 -0.1737 -1.94589 8.69896 28.0267 0 0 0
207 18 2 -0.1737 -3.12451 9.02861 27.6606 0 0 0
208 18 1 -0.0639002 -4.22928 8.30025 26.9529 0 0 0
209 18 3 0.0403668 -2.17686 6.73024 28.1951 0 0 0
210 18 3 0.0403668 -0.595589 7.46181 -0.426604 0 0 1
211 18 3 0.0403668 -0.836828 7.33758 27.1505 0 0 0
212 18 4 0.1165 -1.23679 9.48291 28.273 0 0 0
213 18 4 0.1165 -3.2214 10.0997 27.8069 0 0 0
214 18 3 0.0403668 -5.16359 8.81792 27.1889 0 0 0
215 18 3 0.0403668 -4.12574 8.3003 25.8638 0 0 0
216 18 3 0.0403668 -4.29885 7.2532 27.2619 0 0 0
217 19 1 -0.0639002 -3.47642 13.0361 0.256747 0 0 0
218 19 2 -0.1737 -3.49863 14.4805 0.127368 0 0 0
219 19 2 -0.1737 -4.70772 15.0625 0.159348 0 0 0
220 19 1 -0.0639002 -5.95501 14.2135 -0.23345 0 0 0
221 19 3 0.0403668 -4.12032 12.567 1.00644 0 0 0
222 19 3 0.0403668 -2.45664 12.9847 0.649173 0 0 0
223 19 3 0.0403668 -3.45288 12.6384 -0.762088 0 0 0
224 19 4 0.1165 -2.5707 14.984 -0.124425 0 0 0
225 19 4 0.1165 -4.7459 16.1455 0.0984734 0 0 0
226 19 3 0.0403668 -5.85989 13.1629 -0.523094 0 0 0
227 19 3 0.0403668 -6.77175 14.4636 0.449955 0 0 0
228 19 3 0.0403668 -6.4933 14.6173 -1.09595 0 0 0
229 20 1 -0.0639002 -2.98828 12.6405 4.05428 0 0 0
230 20 2 -0.1737 -2.10142 13.6848 3.87856 0 0 0
231 20 2 -0.1737 -2.3936 14.9679 3.61478 0 0 0
232 20 1 -0.0639002 -3.71114 15.6692 3.70397 0 0 0
233 20 3 0.0403668 -2.57361 11.7778 3.5247 0 0 0
234 20 3 0.0403668 -3.80528 12.7461 3.33454 0 0 0
235 20 3 0.0403668 -3.2179 12.4129 5.09939 0 0 0
236 20 4 0.1165 -1.09207 13.3978 3.60144 0 0 0
237 20 4 0.1165 -1.40442 15.4125 3.57253 0 0 0
238 20 3 0.0403668 -4.09273 15.9372 4.69359 0 0 0
239 20 3 0.0403668 -3.63779 16.588 3.11478 0 0 0
240 20 3 0.0403668 -4.4985 15.0831 3.22112 0 0 0
241 21 1 -0.0639002 -2.40384 13.1302 7.35467 0 0 0
242 21 2 -0.1737 -3.15487 14.2726 6.93783 0 0 0
243 21 2 -0.1737 -4.54768 14.1902 7.02532 0 0 0
244 21 1 -0.0639002 -5.47611 12.9998 7.09798 0 0 0
245 21 3 0.0403668 -1.75304 13.4664 8.16718 0 0 0
246 21 3 0.0403668 -1.6148 13.0199 6.60505 0 0 0
247 21 3 0.0403668 -2.91789 12.2082 7.64158 0 0 0
248 21 4 0.1165 -2.71059 15.1814 6.54429 0 0 0
249 21 4 0.1165 -5.05906 15.1385 6.89442 0 0 0
250 21 3 0.0403668 -6.15751 13.0538 7.95208 0 0 0
251 21 3 0.0403668 -6.05535 13.0439 6.17101 0 0 0
252 21 3 0.0403668 -4.91509 12.0716 6.95551 0 0 0
253 22 1 -0.0639002 -1.98374 12.7696 11.0421 0 0 0
254 22 2 -0.1737 -1.81644 14.2708 10.9264 0 0 0
255 22 2 -0.1737 -2.9125 15.1892 10.9632 0 0 0
256 22 1 -0.0639002 -4.37395 14.7961 10.8905 0 0 0
257 22 3 0.0403668 -1.03385 12.4232 11.4596 0 0 0
258 22 3 0.0403668 -2.2586 12.2766 10.105 0 0 0
259 22 3 0.0403668 -2.82261 12.4032 11.641 0 0 0
260 22 4 0.1165 -0.830382 14.7062 10.7995 0 0 0
261 22 4 0.1165 -2.68558 16.2483 10.8933 0 0 0
262 22 3 0.0403668 -5.00716 15.0749 11.7378 0 0 0
263 22 3 0.0403668 -4.97157 15.2198 10.0781 0 0 0
264 22 3 0.0403668 -4.46764 13.7116 10.7821 0 0 0
265 23 1 -0.0639002 -4.29916 12.8284 14.2864 0 0 0
266 23 2 -0.1737 -3.43473 13.9264 14.8045 0 0 0
267 23 2 -0.1737 -3.83123 15.1558 15.2362 0 0 0
268 23 1 -0.0639002 -5.30578 15.4717 15.1678 0 0 0
269 23 3 0.0403668 -5.34994 12.9168 14.5773 0 0 0
270 23 3 0.0403668 -4.07395 11.9004 14.8202 0 0 0
271 23 3 0.0403668 -4.12696 12.8446 13.2062 0 0 0
272 23 4 0.1165 -2.36536 13.9317 14.6191 0 0 0
273 23 4 0.1165 -2.97974 15.8013 15.4268 0 0 0
274 23 3 0.0403668 -5.65954 16.3203 15.7607 0 0 0
275 23 3 0.0403668 -5.46983 15.7917 14.1346 0 0 0
276 23 3 0.0403668 -5.97483 14.669 15.4913 0 0 0
277 24 1 -0.0639002 -0.764323 12.5431 18.0534 0 0 0
278 24 2 -0.1737 -1.11778 13.9794 17.8844 0 0 0
279 24 2 -0.1737 -2.46773 14.3324 17.9772 0 0 0
280 24 1 -0.0639002 -3.6427 13.6562 18.5841 0 0 0
281 24 3 0.0403668 0.0468793 12.5917 18.7857 0 0 0
282 24 3 0.0403668 -0.555144 12.1991 17.0362 0 0 0
283 24 3 0.0403668 -1.65246 12.0082 18.4024 0 0 0
284 24 4 0.1165 -0.506994 14.6671 17.3082 0 0 0
285 24 4 0.1165 -2.49566 15.3753 17.678 0 0 0
286 24 3 0.0403668 -4.35827 14.1888 19.2173 0 0 0
287 24 3 0.0403668 -4.18697 13.2799 17.713 0 0 0
288 24 3 0.0403668 -3.28717 12.841 19.2211 0 0 0
289 25 1 -0.0639002 -1.91391 13.9214 22.1975 0 0 0
290 25 2 -0.1737 -2.55496 15.1543 21.6946 0 0 0
291 25 2 -0.1737 -3.86438 15.2936 21.5832 0 0 0
292 25 1 -0.0639002 -4.84567 14.2314 21.907 0 0 0
293 25 3 0.0403668 -2.50275 13.1705 22.7323 0 0 0
294 25 3 0.0403668 -1.12462 14.3014 22.8527 0 0 0
295 25 3 0.0403668 -1.43184 13.443 21.3399 0 0 0
296 25 4 0.1165 -1.86144 15.8542 21.2394 0 0 0
297 25 4 0.1165 -4.33122 16.0531 20.9641 0 0 0
298 25 3 0.0403668 -5.78139 14.6308 21.5051 0 0 0
299 25 3 0.0403668 -4.58142 13.354 21.3093 0 0 0
300 25 3 0.0403668 -4.9658 13.9067 22.9447 0 0 0
301 26 1 -0.0639002 -0.830057 12.3884 25.4777 0 0 0
302 26 2 -0.1737 -1.12466 13.6413 26.1122 0 0 0
303 26 2 -0.1737 -2.34875 14.3786 26.1433 0 0 0
304 26 1 -0.0639002 -3.68293 14.0281 25.55 0 0 0
305 26 3 0.0403668 -0.166121 11.8437 26.1554 0 0 0
306 26 3 0.0403668 -0.288991 12.5233 24.5365 0 0 0
307 26 3 0.0403668 -1.7361 11.8481 25.1882 0 0 0
308 26 4 0.1165 -0.291148 14.1087 26.6268 0 0 0
309 26 4 0.1165 -2.44709 15.2965 26.7141 0 0 0
310 26 3 0.0403668 -3.62763 13.7251 24.5002 0 0 0
311 26 3 0.0403668 -3.99908 13.0726 25.9786 0 0 0
312 26 3 0.0403668 -4.49975 14.7213 25.3287 0 0 0
313 27 1 -0.0639002 -0.937192 19.0168 2.97007 0 0 0
314 27 2 -0.1737 -1.86662 19.4094 1.90199 0 0 0
315 27 2 -0.1737 -3.20336 19.8132 2.22775 0 0 0
316 27 1 -0.0639002 -3.98984 19.1725 3.38561 0 0 0
317 27 3 0.0403668 -1.50295 18.8582 3.89284 0 0 0
318 27 3 0.0403668 -0.169993 19.7826 3.11667 0 0 0
319 27 3 0.0403668 -0.124743 18.3052 2.7964 0 0 0
320 27 4 0.1165 -1.49496 19.7234 0.931726 0 0 0
321 27 4 0.1165 -3.5427 20.4819 1.44303 0 0 0
322 27 3 0.0403668 -4.55698 19.9874 3.84495 0 0 0
323 27 3 0.0403668 -4.68865 18.4069 3.03613 0 0 0
324 27 3 0.0403668 -3.47591 18.4694 4.04752 0 0 0
325 28 1 -0.0639002 -1.43041 18.8674 7.91099 0 0 0
326 28 2 -0.1737 -2.63488 18.3031 7.02406 0 0 0
327 28 2 -0.1737 -3.9313 18.574 7.27394 0 0 0
328 28 1 -0.0639002 -4.43741 19.7063 8.2624 0 0 0
329 28 3 0.0403668 -1.52115 18.33 8.85951 0 0 0
330 28 3 0.0403668 -1.42693 19.9176 8.21701 0 0 0
331 28 3 0.0403668 -0.387057 18.6663 7.65108 0 0 0
332 28 4 0.1165 -2.46652 17.635 6.18535 0 0 0
333 28 4 0.1165 -4.73524 17.9755 6.85736 0 0 0
334 28 3 0.0403668 -5.41554 20.077 7.94232 0 0 0
335 28 3 0.0403668 -4.4223 19.4364 9.32245 0 0 0
336 28 3 0.0403668 -3.78133 20.5811 8.29276 0 0 0
337 29 1 -0.0639002 -1.77354 19.7875 12.0583 0 0 0
338 29 2 -0.1737 -2.24689 19.7952 13.4722 0 0 0
339 29 2 -0.1737 -3.45591 19.8612 14.0326 0 0 0
340 29 1 -0.0639002 -4.79566 20.0815 13.4458 0 0 0
341 29 3 0.0403668 -0.744755 20.1552 12.0038 0 0 0
342 29 3 0.0403668 -2.33905 20.473 11.4205 0 0 0
343 29 3 0.0403668 -1.92111 18.7269 11.8345 0 0 0
344 29 4 0.1165 -1.44372 19.7152 14.1979 0 0 0
345 29 4 0.1165 -3.35604 19.9921 15.1055 0 0 0
346 29 3 0.0403668 -4.79718 19.5987 12.4642 0 0 0
347 29 3 0.0403668 -5.57868 19.7024 14.109 0 0 0
348 29 3 0.0403668 -5.07488 21.0549 13.032 0 0 0
349 30 1 -0.0639002 -1.50471 18.6165 17.8312 0 0 0
350 30 2 -0.1737 -2.43936 19.636 18.4472 0 0 0
351 30 2 -0.1737 -3.86386 19.5435 18.4835 0 0 0
352 30 1 -0.0639002 -4.72654 18.4216 17.7329 0 0 0
353 30 3 0.0403668 -1.52451 18.7133 16.7417 0 0 0
354 30 3 0.0403668 -1.99949 17.6793 18.1024 0 0 0
355 30 3 0.0403668 -0.514556 18.7364 18.2805 0 0 0
356 30 4 0.1165 -2.0593 20.3743 19.1462 0 0 0
357 30 4 0.1165 -4.29756 20.3764 19.0277 0 0 0
358 30 3 0.0403668 -4.11279 17.5236 17.6169 0 0 0
359 30 3 0.0403668 -5.62084 18.0971 18.2729 0 0 0
360 30 3 0.0403668 -5.13363 18.676 16.7499 0 0 0
361 31 1 -0.0639002 -2.04851 19.2147 22.6252 0 0 0
362 31 2 -0.1737 -2.40792 20.3783 21.6658 0 0 0
363 31 2 -0.1737 -3.70854 20.8228 21.6982 0 0 0
364 31 1 -0.0639002 -4.79992 20.186 22.6068 0 0 0
365 31 3 0.0403668 -2.77186 18.4474 22.3342 0 0 0
366 31 3 0.0403668 -2.16717 19.464 23.6837 0 0 0
367 31 3 0.0403668 -1.0568 18.8992 22.2882 0 0 0
368 31 4 0.1165 -1.63283 20.8662 21.0833 0 0 0
369 31 4 0.1165 -3.94321 21.6104 20.9892 0 0 0
370 31 3 0.0403668 -5.37357 20.8573 23.2525 0 0 0
371 31 3 0.0403668 -5.40848 19.6234 21.8928 0 0 0
372 31 3 0.0403668 -4.41699 19.3577 23.2102 0 0 0
373 32 1 -0.0639002 -0.241561 18.9243 26.6103 0 0 0
374 32 2 -0.1737 -0.676397 20.3017 26.5848 0 0 0
375 32 2 -0.1737 -1.99049 20.6804 26.7111 0 0 0
376 32 1 -0.0639002 -3.21415 19.9612 26.6448 0 0 0
377 32 3 0.0403668 -0.183252 18.5022 27.6178 0 0 0
378 32 3 0.0403668 0.785696 18.9294 26.2343 0 0 0
379 32 3 0.0403668 -1.00087 18.2881 26.1462 0 0 0
380 32 4 0.1165 0.0407945 21.0836 26.3563 0 0 0
381 32 4 0.1165 -1.97183 21.7646 26.7577 0 0 0
382 32 3 0.0403668 -4.04246 20.6373 26.8758 0 0 0
383 32 3 0.0403668 -3.33733 19.4879 25.6663 0 0 0
384 32 3 0.0403668 -3.37055 19.0562 27.2391 0 0 0
385 33 1 -0.0639002 -0.0974194 23.5701 -0.720785 0 0 0
386 33 2 -0.1737 -1.19868 24.3348 27.8445 0 0 -1
387 33 2 -0.1737 -2.5885 24.2932 28.0475 0 0 -1
388 33 1 -0.0639002 -3.2225 23.2976 -0.201666 0 0 0
389 33 3 0.0403668 0.496047 23.1383 27.7933 0 0 -1
390 33 3 0.0403668 -0.581736 22.8975 -0.00684749 0 0 0
391 33 3 0.0403668 0.623151 24.2234 -0.220135 0 0 0
392 33 4 0.1165 -0.980996 24.9322 26.9648 0 0 -1
393 33 4 0.1165 -3.2195 24.8404 27.3544 0 0 -1
394 33 3 0.0403668 -2.93179 23.4835 0.836466 0 0 0
395 33 3 0.0403668 -4.29742 23.1412 -0.330826 0 0 0
396 33 3 0.0403668 -2.98909 22.2311 -0.270499 0 0 0
397 34 1 -0.0639002 -1.64485 22.3401 4.9901 0 0 0
398 34 2 -0.1737 -1.89793 23.616 4.44386 0 0 0
399 34 2 -0.1737 -3.14497 24.063 4.11499 0 0 0
400 34 1 -0.0639002 -4.40611 23.4343 4.23675 0 0 0
401 34 3 0.0403668 -1.78643 21.7383 4.08755 0 0 0
402 34 3 0.0403668 -2.31594 21.8356 5.6914 0 0 0
403 34 3 0.0403668 -0.67298 22.5235 5.45747 0 0 0
404 34 4 0.1165 -1.1232 24.2332 4.00015 0 0 0
405 34 4 0.1165 -3.10717 25.1297 3.91826 0 0 0
406 34 3 0.0403668 -4.3207 22.694 5.03757 0 0 0
407 34 3 0.0403668 -5.23678 24.1416 4.31693 0 0 0
408 34 3 0.0403668 -4.62509 22.8592 3.33232 0 0 0
409 35 1 -0.0639002 -1.86119 24.6286 8.25265 0 0 0
410 35 2 -0.1737 -2.73397 25.4577 9.01758 0 0 0
411 35 2 -0.1737 -4.05942 25.1978 9.23311 0 0 0
412 35 1 -0.0639002 -4.69887 23.9271 8.73347 0 0 0
413 35 3 0.0403668 -2.46003 24.2243 7.43128 0 0 0
414 35 3 0.0403668 -1.40936 23.8619 8.88888 0 0 0
415 35 3 0.0403668 -1.02752 25.2221 7.86614 0 0 0
416 35 4 0.1165 -2.37625 26.4311 9.33781 0 0 0
417 35 4 0.1165 -4.54029 26.1214 9.53915 0 0 0
418 35 3 0.0403668 -5.18438 23.9858 7.75494 0 0 0
419 35 3 0.0403668 -3.94993 23.1333 8.65888 0 0 0
420 35 3 0.0403668 -5.54733 23.7539 9.40186 0 0 0
421 36 1 -0.0639002 -0.86327 24.4625 12.7231 0 0 0
422 36 2 -0.1737 -2.23039 24.3121 12.1858 0 0 0
423 36 2 -0.1737 -3.5034 24.6593 12.7145 0 0 0
424 36 1 -0.0639002 -3.58223 25.3312 14.0691 0 0 0
425 36 3 0.0403668 -0.745275 23.5309 13.2843 0 0 0
426 36 3 0.0403668 -0.799096 25.4109 13.2646 0 0 0
427 36 3 0.0403668 -0.176431 24.6309 11.8885 0 0 0
428 36 4 0.1165 -2.30952 23.6771 11.3091 0 0 0
429 36 4 0.1165 -4.40398 24.5882 12.113 0 0 0
430 36 3 0.0403668 -4.09764 26.2959 14.0471 0 0 0
431 36 3 0.0403668 -3.92429 24.5414 14.7443 0 0 0
432 36 3 0.0403668 -2.61828 25.5784 14.5234 0 0 0
433 37 1 -0.0639002 -3.58481 23.3299 18.2468 0 0 0
434 37 2 -0.1737 -4.64329 24.2754 18.0347 0 0 0
435 37 2 -0.1737 -4.80732 25.1581 19.064 0 0 0
436 37 1 -0.0639002 -4.23924 25.0055 20.4166 0 0 0
437 37 3 0.0403668 -2.63396 23.8547 18.1163 0 0 0
438 37 3 0.0403668 -3.88559 22.6751 17.4237 0 0 0
439 37 3 0.0403668 -3.63804 22.7917 19.1977 0 0 0
440 37 4 0.1165 -4.89108 24.6012 17.0294 0 0 0
441 37 4 0.1165 -5.51259 25.9723 18.9307 0 0 0
442 37 3 0.0403668 -4.40965 24.0364 20.8945 0 0 0
443 37 3 0.0403668 -3.16633 25.1892 20.3083 0 0 0
444 37 3 0.0403668 -4.67433 25.6968 21.1443 0 0 0
445 38 1 -0.0639002 -1.024 23.2681 23.623 0 0 0
446 38 2 -0.1737 -1.3851 24.6566 23.6248 0 0 0
447 38 2 -0.1737 -2.63509 25.0342 23.6368 0 0 0
448 38 1 -0.0639002 -3.68849 24.354 24.4065 0 0 0
449 38 3 0.0403668 -0.799693 23.2784 22.5523 0 0 0
450 38 3 0.0403668 -1.81625 22.5192 23.7127 0 0 0
451 38 3 0.0403668 -0.100073 23.0844 24.1791 0 0 0
452 38 4 0.1165 -0.612659 25.363 23.3376 0 0 0
453 38 4 0.1165 -2.82645 26.0892 23.4683 0 0 0
454 38 3 0.0403668 -3.45849 23.4137 24.9161 0 0 0
455 38 3 0.0403668 -3.84333 25.0809 25.2092 0 0 0
456 38 3 0.0403668 -4.63024 24.2697 23.8564 0 0 0
457 39 1 -0.0639002 -2.74146 27.9733 0.0177698 0 0 0
458 39 2 -0.1737 -3.1148 29.3304 0.409269 0 0 0
459 39 2 -0.1737 -4.47787 29.787 0.522888 0 0 0
460 39 1 -0.0639002 -5.63495 28.889 0.480076 0 0 0
461 39 3 0.0403668 -3.40435 27.3214 0.594181 0 0 0
462 39 3 0.0403668 -1.77288 27.7867 0.490684 0 0 0
463 39 3 0.0403668 -2.61207 27.9041 -1.06632 0 0 0
464 39 4 0.1165 -2.42518 30.1333 0.649754 0 0 0
465 39 4 0.1165 -4.48313 30.6825 1.13625 0 0 0
466 39 3 0.0403668 -6.56802 29.2106 0.00834509 0 0 0
467 39 3 0.0403668 -5.35683 27.9763 -0.0550818 0 0 0
468 39 3 0.0403668 -5.85747 28.6234 1.51773 0 0 0
469 40 1 -0.0639002 -1.17176 28.2714 4.83078 0 0 0
470 40 2 -0.1737 -0.83016 29.5493 4.10073 0 0 0
471 40 2 -0.1737 -1.84094 30.4784 3.89987 0 0 0
472 40 1 -0.0639002 -3.34907 30.2116 4.17058 0 0 0
473 40 3 0.0403668 -1.22681 27.5998 3.96897 0 0 0
474 40 3 0.0403668 -2.14068 28.1644 5.32716 0 0 0
475 40 3 0.0403668 -0.311742 28.1422 5.49435 0 0 0
476 40 4 0.1165 0.105529 29.5511 3.55076 0 0 0
477 40 4 0.1165 -1.5632 31.199 3.13713 0 0 0
478 40 3 0.0403668 -3.50616 29.7799 5.16343 0 0 0
479 40 3 0.0403668 -3.82161 31.1759 3.96197 0 0 0
480 40 3 0.0403668 -3.81506 29.5782 3.41013 0 0 0
481 41 1 -0.0639002 -2.35109 29.9764 8.8812 0 0 0
482 41 2 -0.1737 -3.26568 30.7422 7.95392 0 0 0
483 41 2 -0.1737 -4.70092 30.7339 8.20624 0 0 0
484 41 1 -0.0639002 -5.20002 29.8536 9.47186 0 0 0
485 41 3 0.0403668 -2.47215 30.3781 9.89155 0 0 0
486 41 3 0.0403668 -1.32421 30.1978 8.57603 0 0 0
487 41 3 0.0403668 -2.55762 28.9027 8.91581 0 0 0
488 41 4 0.1165 -2.85897 31.1094 7.01696 0 0 0
489 41 4 0.1165 -5.36884 31.1694 7.46983 0 0 0
490 41 3 0.0403668 -5.16949 30.6619 10.2084 0 0 0
491 41 3 0.0403668 -6.24445 29.5398 9.38669 0 0 0
492 41 3 0.0403668 -4.6321 28.9744 9.78977 0 0 0
493 42 1 -0.0639002 -1.1818 28.2316 12.3217 0 0 0
494 42 2 -0.1737 -1.62447 29.4956 12.6634 0 0 0
495 42 2 -0.1737 -2.88648 29.7391 13.108 0 0 0
496 42 1 -0.0639002 -4.1744 29.2116 12.8996 0 0 0
497 42 3 0.0403668 -1.94154 27.599 11.8535 0 0 0
498 42 3 0.0403668 -0.796198 27.7974 13.2488 0 0 0
499 42 3 0.0403668 -0.301552 28.3702 11.6872 0 0 0
500 42 4 0.1165 -0.912713 30.2612 12.9554 0 0 0
501 42 4 0.1165 -2.87217 30.7769 13.4253 0 0 0
502 42 3 0.0403668 -4.22881 28.1205 12.9563 0 0 0
503 42 3 0.0403668 -4.94213 29.667 13.532 0 0 0
504 42 3 0.0403668 -4.59106 29.3652 11.8999 0 0 0
505 43 1 -0.0639002 -2.06362 27.978 16.1965 0 0 0
506 43 2 -0.1737 -1.916 29.3779 16.187 0 0 0
507 43 2 -0.1737 -2.77219 30.1966 16.8512 0 0 0
508 43 1 -0.0639002 -4.18407 29.8685 17.2875 0 0 0
509 43 3 0.0403668 -1.16485 27.4319 15.8955 0 0 0
510 43 3 0.0403668 -3.05147 27.6789 15.8341 0 0 0
511 43 3 0.0403668 -2.16669 27.7187 17.2542 0 0 0
512 43 4 0.1165 -1.09479 29.7635 15.5912 0 0 0
513 43 4 0.1165 -2.56841 31.253 16.9948 0 0 0
514 43 3 0.0403668 -4.74302 30.4643 16.56 0 0 0
515 43 3 0.0403668 -4.64474 28.8867 17.1439 0 0 0
516 43 3 0.0403668 -4.42461 30.229 18.292 0 0 0
517 44 1 -0.0639002 -0.448549 29.3793 20.5673 0 0 0
518 44 2 -0.1737 -1.24915 30.3823 21.3636 0 0 0
519 44 2 -0.1737 -2.6604 30.2521 21.3773 0 0 0
520 44 1 -0.0639002 -3.30963 28.8746 21.3671 0 0 0
521 44 3 0.0403668 -0.880271 28.3792 20.6676 0 0 0
522 44 3 0.0403668 0.603434 29.3642 20.8668 0 0 0
523 44 3 0.0403668 -0.543547 29.6772 19.5189 0 0 0
524 44 4 0.1165 -0.755607 31.3198 21.5994 0 0 0
525 44 4 0.1165 -3.22546 31.1109 21.7255 0 0 0
526 44 3 0.0403668 -4.11196 28.8798 22.1107 0 0 0
527 44 3 0.0403668 -3.88233 28.6777 20.4561 0 0 0
528 44 3 0.0403668 -2.59681 28.0948 21.6509 0 0 0
529 45 1 -0.0639002 -1.43143 29.1577 25.0676 0 0 0
530 45 2 -0.1737 -2.48436 30.2954 25.3115 0 0 0
531 45 2 -0.1737 -3.87877 30.0227 25.2292 0 0 0
532 45 1 -0.0639002 -4.44986 28.6407 24.903 0 0 0
533 45 3 0.0403668 -2.03532 28.2599 25.2286 0 0 0
534 45 3 0.0403668 -0.706646 29.1809 25.8867 0 0 0
535 45 3 0.0403668 -0.929559 29.2335 24.0985 0 0 0
536 45 4 0.1165 -2.20605 31.2841 25.6624 0 0 0
537 45 4 0.1165 -4.59948 30.7178 25.6482 0 0 0
538 45 3 0.0403668 -5.48745 28.7188 24.5655 0 0 0
539 45 3 0.0403668 -3.94872 28.1604 24.0575 0 0 0
540 45 3 0.0403668 -4.4419 27.9593 25.7588 0 0 0
541 46 1 -0.0639002 -1.3479 33.0308 -1.09055 0 0 0
542 46 2 -0.1737 -1.12307 33.8918 0.144819 0 0 0
543 46 2 -0.1737 -2.21789 34.4543 0.747699 0 0 0
544 46 1 -0.0639002 -3.62057 34.3598 0.375237 0 0 0
545 46 3 0.0403668 -0.348301 32.6585 -1.33304 0 0 0
546 46 3 0.0403668 -1.52965 33.8068 27.4854 0 0 -1
547 46 3 0.0403668 -2.17405 32.3164 -1.02973 0 0 0
548 46 4 0.1165 -0.13707 34.2444 0.430161 0 0 0
549 46 4 0.1165 -2.09888 35.1096 1.60477 0 0 0
550 46 3 0.0403668 -3.87232 33.5363 -0.299473 0 0 0
551 46 3 0.0403668 -4.14287 34.0169 1.27322 0 0 0
552 46 3 0.0403668 -3.95184 35.2753 -0.123521 0 0 0
553 47 1 -0.0639002 -1.11151 33.662 5.07582 0 0 0
554 47 2 -0.1737 -2.41288 33.9584 4.53537 0 0 0
555 47 2 -0.1737 -3.38425 34.3742 5.4142 0 0 0
556 47 1 -0.0639002 -3.01164 34.9597 6.72918 0 0 0
557 47 3 0.0403668 -1.33525 32.7698 5.66804 0 0 0
558 47 3 0.0403668 -0.683916 34.5347 5.57795 0 0 0
559 47 3 0.0403668 -0.535078 33.4882 4.16244 0 0 0
560 47 4 0.1165 -2.68445 34.0312 3.48699 0 0 0
561 47 4 0.1165 -4.37669 34.1999 5.01089 0 0 0
562 47 3 0.0403668 -3.77113 34.5825 7.42026 0 0 0
563 47 3 0.0403668 -2.03448 34.7493 7.17361 0 0 0
564 47 3 0.0403668 -3.17703 36.0312 6.58379 0 0 0
565 48 1 -0.0639002 -2.33505 33.3042 10.4716 0 0 0
566 48 2 -0.1737 -2.9991 33.3081 11.6971 0 0 0
567 48 2 -0.1737 -3.402 34.4192 12.3105 0 0 0
568 48 1 -0.0639002 -2.96808 35.7307 12.1074 0 0 0
569 48 3 0.0403668 -3.13366 32.9788 9.79849 0 0 0
570 48 3 0.0403668 -1.61866 32.4935 10.6334 0 0 0
571 48 3 0.0403668 -1.88458 34.2823 10.2788 0 0 0
572 48 4 0.1165 -3.38978 32.3752 12.091 0 0 0
573 48 4 0.1165 -4.15213 34.3994 13.0947 0 0 0
574 48 3 0.0403668 -2.73115 36.1424 11.1219 0 0 0
575 48 3 0.0403668 -3.64089 36.3571 12.7005 0 0 0
576 48 3 0.0403668 -1.97737 35.9148 12.5331 0 0 0
577 49 1 -0.0639002 -1.26951 34.1472 17.5769 0 0 0
578 49 2 -0.1737 -2.60894 34.515 17.1564 0 0 0
579 49 2 -0.1737 -3.48438 35.1573 17.9909 0 0 0
580 49 1 -0.0639002 -3.53252 35.4336 19.4072 0 0 0
581 49 3 0.0403668 -0.869135 33.1343 17.4751 0 0 0
582 49 3 0.0403668 -1.00063 34.5918 18.5396 0 0 0
583 49 3 0.0403668 -0.811621 34.7849 16.8151 0 0 0
584 49 4 0.1165 -2.92161 34.494 16.1171 0 0 0
585 49 4 0.1165 -4.14342 35.8052 17.4218 0 0 0
586 49 3 0.0403668 -3.22309 34.6749 20.132 0 0 0
587 49 3 0.0403668 -3.11769 36.3848 19.7531 0 0 0
588 49 3 0.0403668 -4.59022 35.5745 19.648 0 0 0
589 50 1 -0.0639002 -3.71132 34.989 23.0868 0 0 0
590 50 2 -0.1737 -2.86863 35.2688 24.2845 0 0 0
591 50 2 -0.1737 -3.35979 35.6414 25.4928 0 0 0
592 50 1 -0.0639002 -4.80802 35.7246 25.82 0 0 0
593 50 3 0.0403668 -3.01617 35.2263 22.2762 0 0 0
594 50 3 0.0403668 -4.58319 35.6482 23.0421 0 0 0
595 50 3 0.0403668 -4.04903 33.9497 23.0369 0 0 0
596 50 4 0.1165 -1.78866 35.2456 24.1793 0 0 0
597 50 4 0.1165 -2.56667 35.7604 26.2241 0 0 0
598 50 3 0.0403668 -5.1831 36.748 25.7266 0 0 0
599 50 3 0.0403668 -5.50858 35.1024 25.2554 0 0 0
600 50 3 0.0403668 -4.92846 35.5557 26.8941 0 0 0
601 51 1 -0.0639002 5.32264 -2.5536 -0.846992 0 0 0
602 51 2 -0.1737 6.03369 -1.26624 28.0503 0 0 -1
603 51 2 -0.1737 5.45697 0.00998038 27.8635 0 0 -1
604 51 1 -0.0639002 4.07289 0.258094 -0.870292 0 0 0