ITEM: TIMESTEP
0
ITEM: NUMBER OF ATOMS
4800
ITEM: BOX BOUNDS xy xz yz pp pp pp
-6.2014395232967914e+00 5.3125802723297646e+01 0.0000000000000000e+00
-3.0440890785129566e+00 3.6578701078512957e+01 0.0000000000000000e+00
-4.2355703123145144e-01 2.7397871751231460e+01 0.0000000000000000e+00
ITEM: ATOMS id mol type q x y z ix iy iz
1 1 1 -0.0639002 -0.79691 -1.5783 0.897627 0 0 0
2 1 2 -0.1737 -1.61578 -0.00381213 0.598364 0 0 0
3 1 2 -0.1737 -3.25759 0.200824 0.835933 0 0 0
4 1 1 -0.0639002 -4.22234 -1.18394 1.39324 0 0 0
5 1 3 0.0403668 -1.15243 -2.3389 0.196405 0 0 0
6 1 3 0.0403668 -1.12411 -1.99242 1.85578 0 0 0
7 1 3 0.0403668 0.29386 -1.50414 0.860615 0 0 0
8 1 4 0.1165 -0.983846 0.808009 0.252522 0 0 0
9 1 4 0.1165 -3.72653 1.16104 0.645985 0 0 0
10 1 3 0.0403668 -5.29276 -1.14039 1.172 0 0 0
11 1 3 0.0403668 -3.75866 -2.09603 1.00631 0 0 0
12 1 3 0.0403668 -4.02248 -1.16395 2.46854 0 0 0
13 2 1 -0.0639002 -0.796909 -1.5783 4.37531 0 0 0
14 2 2 -0.1737 -1.61578 -0.00381195 4.07604 0 0 0
15 2 2 -0.1737 -3.25759 0.200828 4.31362 0 0 0
16 2 1 -0.0639002 -4.22234 -1.18394 4.87092 0 0 0
17 2 3 0.0403668 -1.15243 -2.33891 3.6741 0 0 0
18 2 3 0.0403668 -1.12411 -1.99242 5.33346 0 0 0
19 2 3 0.0403668 0.293861 -1.50414 4.33829 0 0 0
20 2 4 0.1165 -0.983846 0.808009 3.7302 0 0 0
21 2 4 0.1165 -3.72653 1.16104 4.12366 0 0 0
22 2 3 0.0403668 -5.29276 -1.14039 4.64968 0 0 0
23 2 3 0.0403668 -3.75866 -2.09603 4.48399 0 0 0
24 2 3 0.0403668 -4.02247 -1.16395 5.94622 0 0 0
25 3 1 -0.0639002 -0.79691 -1.57831 7.85298 0 0 0
26 3 2 -0.1737 -1.61578 -0.00380519 7.55372 0 0 0
27 3 2 -0.1737 -3.2576 0.200859 7.79129 0 0 0
28 3 1 -0.0639002 -4.22233 -1.18397 8.34859 0 0 0
29 3 3 0.0403668 -1.1524 -2.33897 7.15181 0 0 0
30 3 3 0.0403668 -1.12412 -1.99243 8.81114 0 0 0
31 3 3 0.0403668 0.29386 -1.50414 7.81597 0 0 0
32 3 4 0.1165 -0.983892 0.808058 7.20789 0 0 0
33 3 4 0.1165 -3.72636 1.16119 7.60149 0 0 0
34 3 3 0.0403668 -5.29275 -1.14039 8.12736 0 0 0
35 3 3 0.0403668 -3.75883 -2.09617 7.96169 0 0 0
36 3 3 0.0403668 -4.02248 -1.16395 9.42389 0 0 0
37 4 1 -0.0639002 -0.79691 -1.5783 11.3307 0 0 0
38 4 2 -0.1737 -1.61578 -0.00381196 11.0314 0 0 0
39 4 2 -0.1737 -3.25759 0.200828 11.269 0 0 0
40 4 1 -0.0639002 -4.22234 -1.18394 11.8263 0 0 0
41 4 3 0.0403668 -1.15243 -2.33891 10.6295 0 0 0
42 4 3 0.0403668 -1.12411 -1.99242 12.2888 0 0 0
43 4 3 0.0403668 0.29386 -1.50414 11.2937 0 0 0
44 4 4 0.1165 -0.983846 0.808009 10.6856 0 0 0
45 4 4 0.1165 -3.72653 1.16104 11.079 0 0 0
46 4 3 0.0403668 -5.29276 -1.14039 11.605 0 0 0
47 4 3 0.0403668 -3.75866 -2.09603 11.4394 0 0 0
48 4 3 0.0403668 -4.02247 -1.16395 12.9016 0 0 0
49 5 1 -0.0639002 -0.79691 -1.5783 18.286 0 0 0
50 5 2 -0.1737 -1.61578 -0.00381212 17.9868 0 0 0
51 5 2 -0.1737 -3.25759 0.200824 18.2243 0 0 0
52 5 1 -0.0639002 -4.22234 -1.18394 18.7816 0 0 0
53 5 3 0.0403668 -1.15243 -2.3389 17.5848 0 0 0
54 5 3 0.0403668 -1.12411 -1.99242 19.2442 0 0 0
55 5 3 0.0403668 0.29386 -1.50414 18.249 0 0 0
56 5 4 0.1165 -0.983846 0.808009 17.6409 0 0 0
57 5 4 0.1165 -3.72653 1.16104 18.0344 0 0 0
58 5 3 0.0403668 -5.29276 -1.14039 18.5604 0 0 0
59 5 3 0.0403668 -3.75866 -2.09603 18.3947 0 0 0
60 5 3 0.0403668 -4.02248 -1.16395 19.8569 0 0 0
61 6 1 -0.0639002 -0.796818 -1.5783 21.7637 0 0 0
62 6 2 -0.1737 -1.61578 -0.00381185 21.4644 0 0 0
63 6 2 -0.1737 -3.25759 0.200828 21.702 0 0 0
64 6 1 -0.0639002 -4.22233 -1.18397 22.2593 0 0 0
65 6 3 0.0403668 -1.15239 -2.33894 21.0626 0 0 0
66 6 3 0.0403668 -1.1241 -1.99241 22.7218 0 0 0
67 6 3 0.0403668 0.293946 -1.50392 21.7269 0 0 0
68 6 4 0.1165 -0.983846 0.808009 21.1186 0 0 0
69 6 4 0.1165 -3.72653 1.16104 21.5121 0 0 0
70 6 3 0.0403668 -5.29275 -1.14039 22.0381 0 0 0
71 6 3 0.0403668 -3.75883 -2.09617 21.8724 0 0 0
72 6 3 0.0403668 -4.02248 -1.16395 23.3346 0 0 0
73 7 1 -0.0639002 -0.796816 3.37455 0.897632 0 0 0
74 7 2 -0.1737 -1.61578 4.94904 0.598365 0 0 0
75 7 2 -0.1737 -3.25759 5.15368 0.835938 0 0 0
76 7 1 -0.0639002 -4.22234 3.76891 1.39324 0 0 0
77 7 3 0.0403668 -1.15242 2.61396 0.196446 0 0 0
78 7 3 0.0403668 -1.12411 2.96044 1.85576 0 0 0
79 7 3 0.0403668 0.293948 3.44893 0.860845 0 0 0
80 7 4 0.1165 -0.983846 5.76086 0.252522 0 0 0
81 7 4 0.1165 -3.72653 6.11389 0.645985 0 0 0
82 7 3 0.0403668 -5.29276 3.81246 1.172 0 0 0
83 7 3 0.0403668 -3.75866 2.85682 1.00632 0 0 0
84 7 3 0.0403668 -4.02247 3.7889 2.46854 0 0 0
85 8 1 -0.0639002 -0.796817 3.37455 4.37531 0 0 0
86 8 2 -0.1737 -1.61578 4.94904 4.07604 0 0 0
87 8 2 -0.1737 -3.2576 5.15371 4.31361 0 0 0
88 8 1 -0.0639002 -4.22243 3.7689 4.87091 0 0 0
89 8 3 0.0403668 -1.15242 2.61396 3.67413 0 0 0
90 8 3 0.0403668 -1.1241 2.96044 5.33344 0 0 0
91 8 3 0.0403668 0.293947 3.44893 4.33852 0 0 0
92 8 4 0.1165 -0.983892 5.76091 3.73021 0 0 0
93 8 4 0.1165 -3.72636 6.11404 4.12381 0 0 0
94 8 3 0.0403668 -5.29286 3.81217 4.64966 0 0 0
95 8 3 0.0403668 -3.75867 2.85684 4.484 0 0 0
96 8 3 0.0403668 -4.02248 3.7889 5.94619 0 0 0
97 9 1 -0.0639002 -0.79691 3.37455 11.3307 0 0 0
98 9 2 -0.1737 -1.61578 4.94904 11.0314 0 0 0
99 9 2 -0.1737 -3.25759 5.15367 11.269 0 0 0
100 9 1 -0.0639002 -4.22234 3.76891 11.8263 0 0 0
101 9 3 0.0403668 -1.15243 2.61395 10.6294 0 0 0
102 9 3 0.0403668 -1.12411 2.96043 12.2888 0 0 0
103 9 3 0.0403668 0.29386 3.44871 11.2937 0 0 0
104 9 4 0.1165 -0.983846 5.76086 10.6856 0 0 0
105 9 4 0.1165 -3.72653 6.11389 11.079 0 0 0
106 9 3 0.0403668 -5.29276 3.81246 11.605 0 0 0
107 9 3 0.0403668 -3.75866 2.85682 11.4394 0 0 0
108 9 3 0.0403668 -4.02248 3.7889 12.9016 0 0 0
109 10 1 -0.0639002 -0.79691 3.37455 18.286 0 0 0
110 10 2 -0.1737 -1.61578 4.94904 17.9868 0 0 0
111 10 2 -0.1737 -3.25759 5.15367 18.2243 0 0 0
112 10 1 -0.0639002 -4.22234 3.76891 18.7816 0 0 0
113 10 3 0.0403668 -1.15243 2.61395 17.5848 0 0 0
114 10 3 0.0403668 -1.12411 2.96042 19.2442 0 0 0
115 10 3 0.0403668 0.29386 3.44871 18.249 0 0 0
116 10 4 0.1165 -0.983846 5.76086 17.6409 0 0 0
117 10 4 0.1165 -3.72653 6.11389 18.0344 0 0 0
118 10 3 0.0403668 -5.29276 3.81246 18.5604 0 0 0
119 10 3 0.0403668 -3.75866 2.85682 18.3947 0 0 0
120 10 3 0.0403668 -4.02248 3.7889 19.8569 0 0 0
121 11 1 -0.0639002 -0.796909 3.37455 21.7637 0 0 0
122 11 2 -0.1737 -1.61578 4.94904 21.4644 0 0 0
123 11 2 -0.1737 -3.25759 5.15368 21.702 0 0 0
124 11 1 -0.0639002 -4.22243 3.7689 22.2593 0 0 0
125 11 3 0.0403668 -1.15243 2.61394 21.0625 0 0 0
126 11 3 0.0403668 -1.12411 2.96042 22.7219 0 0 0
127 11 3 0.0403668 0.293861 3.44871 21.7267 0 0 0
128 11 4 0.1165 -0.983846 5.76086 21.1186 0 0 0
129 11 4 0.1165 -3.72653 6.11389 21.5121 0 0 0
130 11 3 0.0403668 -5.29286 3.81217 22.0381 0 0 0
131 11 3 0.0403668 -3.75867 2.85684 21.8724 0 0 0
132 11 3 0.0403668 -4.02248 3.7889 23.3346 0 0 0
133 12 1 -0.0639002 -0.79691 3.37454 25.2414 0 0 0
134 12 2 -0.1737 -1.61578 4.94904 24.9421 0 0 0
135 12 2 -0.1737 -3.25759 5.15368 25.1797 0 0 0
136 12 1 -0.0639002 -4.22233 3.76888 25.737 0 0 0
137 12 3 0.0403668 -1.1524 2.61388 24.5402 0 0 0
138 12 3 0.0403668 -1.12412 2.96042 26.1995 0 0 0
139 12 3 0.0403668 0.29386 3.44871 25.2044 0 0 0
140 12 4 0.1165 -0.983846 5.76086 24.5963 0 0 0
141 12 4 0.1165 -3.72653 6.11389 24.9897 0 0 0
142 12 3 0.0403668 -5.29275 3.81246 25.5158 0 0 0
143 12 3 0.0403668 -3.75883 2.85668 25.3501 0 0 0
144 12 3 0.0403668 -4.02248 3.7889 26.8123 0 0 0
145 13 1 -0.0639002 -0.796817 8.3274 0.897634 0 0 0
146 13 2 -0.1737 -1.61578 9.90189 0.598365 0 0 0
147 13 2 -0.1737 -3.25759 10.1065 0.835938 0 0 0
148 13 1 -0.0639002 -4.22243 8.72175 1.39323 0 0 0
149 13 3 0.0403668 -1.15242 7.56681 0.196447 0 0 0
150 13 3 0.0403668 -1.1241 7.91329 1.85576 0 0 0
151 13 3 0.0403668 0.293947 8.40178 0.860845 0 0 0
152 13 4 0.1165 -0.983846 10.7137 0.252522 0 0 0
153 13 4 0.1165 -3.72653 11.0667 0.645986 0 0 0
154 13 3 0.0403668 -5.29286 8.76501 1.17198 0 0 0
155 13 3 0.0403668 -3.75867 7.80969 1.00633 0 0 0
156 13 3 0.0403668 -4.02248 8.74175 2.46851 0 0 0
157 14 1 -0.0639002 -0.79691 8.3274 11.3307 0 0 0
158 14 2 -0.1737 -1.61578 9.90189 11.0314 0 0 0
159 14 2 -0.1737 -3.25759 10.1065 11.269 0 0 0
160 14 1 -0.0639002 -4.22243 8.72175 11.8263 0 0 0
161 14 3 0.0403668 -1.15243 7.5668 10.6294 0 0 0
162 14 3 0.0403668 -1.12411 7.91327 12.2888 0 0 0
163 14 3 0.0403668 0.29386 8.40156 11.2937 0 0 0
164 14 4 0.1165 -0.983846 10.7137 10.6856 0 0 0
165 14 4 0.1165 -3.72653 11.0667 11.079 0 0 0
166 14 3 0.0403668 -5.29286 8.76501 11.605 0 0 0
167 14 3 0.0403668 -3.75867 7.80969 11.4394 0 0 0
168 14 3 0.0403668 -4.02248 8.74174 12.9015 0 0 0
169 15 1 -0.0639002 -0.79691 8.32739 14.8083 0 0 0
170 15 2 -0.1737 -1.61578 9.90189 14.5091 0 0 0
171 15 2 -0.1737 -3.25759 10.1065 14.7467 0 0 0
172 15 1 -0.0639002 -4.22242 8.72172 15.3039 0 0 0
173 15 3 0.0403668 -1.1524 7.56673 14.1072 0 0 0
174 15 3 0.0403668 -1.12411 7.91327 15.7665 0 0 0
175 15 3 0.0403668 0.29386 8.40156 14.7713 0 0 0
176 15 4 0.1165 -0.983846 10.7137 14.1632 0 0 0
177 15 4 0.1165 -3.72653 11.0667 14.5567 0 0 0
178 15 3 0.0403668 -5.29286 8.76501 15.0827 0 0 0
179 15 3 0.0403668 -3.75884 7.80956 14.9171 0 0 0
180 15 3 0.0403668 -4.02248 8.74174 16.3792 0 0 0
181 16 1 -0.0639002 -0.796909 8.3274 18.286 0 0 0
182 16 2 -0.1737 -1.61578 9.90189 17.9868 0 0 0
183 16 2 -0.1737 -3.25759 10.1065 18.2243 0 0 0
184 16 1 -0.0639002 -4.22234 8.72176 18.7816 0 0 0
185 16 3 0.0403668 -1.15243 7.56678 17.5848 0 0 0
186 16 3 0.0403668 -1.12411 7.91327 19.2442 0 0 0
187 16 3 0.0403668 0.293861 8.40156 18.249 0 0 0
188 16 4 0.1165 -0.983846 10.7137 17.6409 0 0 0
189 16 4 0.1165 -3.72653 11.0667 18.0344 0 0 0
190 16 3 0.0403668 -5.29276 8.7653 18.5604 0 0 0
191 16 3 0.0403668 -3.75866 7.80967 18.3947 0 0 0
192 16 3 0.0403668 -4.02247 8.74174 19.8569 0 0 0
193 17 1 -0.0639002 -0.796909 8.3274 21.7637 0 0 0
194 17 2 -0.1737 -1.61578 9.90189 21.4644 0 0 0
195 17 2 -0.1737 -3.25759 10.1065 21.702 0 0 0
196 17 1 -0.0639002 -4.22234 8.72176 22.2593 0 0 0
197 17 3 0.0403668 -1.15243 7.56678 21.0625 0 0 0
198 17 3 0.0403668 -1.12411 7.91327 22.7219 0 0 0
199 17 3 0.0403668 0.293861 8.40156 21.7267 0 0 0
200 17 4 0.1165 -0.983846 10.7137 21.1186 0 0 0
201 17 4 0.1165 -3.72653 11.0667 21.5121 0 0 0
202 17 3 0.0403668 -5.29276 8.7653 22.0381 0 0 0
203 17 3 0.0403668 -3.75866 7.80967 21.8724 0 0 0
204 17 3 0.0403668 -4.02247 8.74174 23.3346 0 0 0
205 18 1 -0.0639002 -0.796816 8.3274 25.2414 0 0 0
206 18 2 -0.1737 -1.61578 9.90189 24.9421 0 0 0
207 18 2 -0.1737 -3.25759 10.1065 25.1797 0 0 0
208 18 1 -0.0639002 -4.22234 8.72176 25.737 0 0 0
209 18 3 0.0403668 -1.15242 7.56681 24.5402 0 0 0
210 18 3 0.0403668 -1.12411 7.91328 26.1995 0 0 0
211 18 3 0.0403668 0.293948 8.40178 25.2046 0 0 0
212 18 4 0.1165 -0.983846 10.7137 24.5963 0 0 0
213 18 4 0.1165 -3.72653 11.0667 24.9897 0 0 0
214 18 3 0.0403668 -5.29276 8.7653 25.5158 0 0 0
215 18 3 0.0403668 -3.75866 7.80967 25.3501 0 0 0
216 18 3 0.0403668 -4.02247 8.74174 26.8123 0 0 0
217 19 1 -0.0639002 -0.796909 13.2802 0.89763 0 0 0
218 19 2 -0.1737 -1.61578 14.8547 0.598365 0 0 0
219 19 2 -0.1737 -3.25759 15.0594 0.835938 0 0 0
220 19 1 -0.0639002 -4.22234 13.6746 1.39324 0 0 0
221 19 3 0.0403668 -1.15243 12.5196 0.196423 0 0 0
222 19 3 0.0403668 -1.12411 12.8661 1.85578 0 0 0
223 19 3 0.0403668 0.293861 13.3544 0.860616 0 0 0
224 19 4 0.1165 -0.983846 15.6666 0.252522 0 0 0
225 19 4 0.1165 -3.72653 16.0196 0.645986 0 0 0
226 19 3 0.0403668 -5.29276 13.7182 1.172 0 0 0
227 19 3 0.0403668 -3.75866 12.7625 1.00632 0 0 0
228 19 3 0.0403668 -4.02247 13.6946 2.46854 0 0 0
229 20 1 -0.0639002 -0.79691 13.2802 4.37531 0 0 0
230 20 2 -0.1737 -1.61578 14.8547 4.07604 0 0 0
231 20 2 -0.1737 -3.2576 15.0594 4.31361 0 0 0
232 20 1 -0.0639002 -4.22233 13.6746 4.87091 0 0 0
233 20 3 0.0403668 -1.1524 12.5196 3.67414 0 0 0
234 20 3 0.0403668 -1.12411 12.8661 5.33346 0 0 0
235 20 3 0.0403668 0.29386 13.3544 4.33829 0 0 0
236 20 4 0.1165 -0.983892 15.6666 3.73021 0 0 0
237 20 4 0.1165 -3.72636 16.0197 4.12381 0 0 0
238 20 3 0.0403668 -5.29275 13.7182 4.64969 0 0 0
239 20 3 0.0403668 -3.75883 12.7624 4.48402 0 0 0
240 20 3 0.0403668 -4.02248 13.6946 5.94621 0 0 0
241 21 1 -0.0639002 -0.79691 13.2802 7.85298 0 0 0
242 21 2 -0.1737 -1.61578 14.8547 7.55372 0 0 0
243 21 2 -0.1737 -3.25759 15.0594 7.79129 0 0 0
244 21 1 -0.0639002 -4.22233 13.6746 8.34859 0 0 0
245 21 3 0.0403668 -1.1524 12.5196 7.15181 0 0 0
246 21 3 0.0403668 -1.12411 12.8661 8.81114 0 0 0
247 21 3 0.0403668 0.29386 13.3544 7.81597 0 0 0
248 21 4 0.1165 -0.983846 15.6666 7.20788 0 0 0
249 21 4 0.1165 -3.72653 16.0196 7.60134 0 0 0
250 21 3 0.0403668 -5.29275 13.7182 8.12736 0 0 0
251 21 3 0.0403668 -3.75883 12.7624 7.96169 0 0 0
252 21 3 0.0403668 -4.02248 13.6946 9.42389 0 0 0
253 22 1 -0.0639002 -0.796909 13.2802 11.3307 0 0 0
254 22 2 -0.1737 -1.61578 14.8547 11.0314 0 0 0
255 22 2 -0.1737 -3.2576 15.0594 11.269 0 0 0
256 22 1 -0.0639002 -4.22234 13.6746 11.8263 0 0 0
257 22 3 0.0403668 -1.15243 12.5196 10.6295 0 0 0
258 22 3 0.0403668 -1.12411 12.8661 12.2888 0 0 0
259 22 3 0.0403668 0.293861 13.3544 11.2937 0 0 0
260 22 4 0.1165 -0.983892 15.6666 10.6856 0 0 0
261 22 4 0.1165 -3.72636 16.0197 11.0792 0 0 0
262 22 3 0.0403668 -5.29276 13.7182 11.605 0 0 0
263 22 3 0.0403668 -3.75866 12.7625 11.4394 0 0 0
264 22 3 0.0403668 -4.02247 13.6946 12.9016 0 0 0
265 23 1 -0.0639002 -0.796909 13.2802 14.8083 0 0 0
266 23 2 -0.1737 -1.61578 14.8547 14.5091 0 0 0
267 23 2 -0.1737 -3.25759 15.0594 14.7467 0 0 0
268 23 1 -0.0639002 -4.22234 13.6746 15.304 0 0 0
269 23 3 0.0403668 -1.15243 12.5196 14.1071 0 0 0
270 23 3 0.0403668 -1.12411 12.8661 15.7665 0 0 0
271 23 3 0.0403668 0.293861 13.3544 14.7713 0 0 0
272 23 4 0.1165 -0.983846 15.6666 14.1632 0 0 0
273 23 4 0.1165 -3.72653 16.0196 14.5567 0 0 0
274 23 3 0.0403668 -5.29276 13.7182 15.0827 0 0 0
275 23 3 0.0403668 -3.75866 12.7625 14.917 0 0 0
276 23 3 0.0403668 -4.02247 13.6946 16.3793 0 0 0
277 24 1 -0.0639002 -0.796816 13.2803 18.286 0 0 0
278 24 2 -0.1737 -1.61578 14.8547 17.9868 0 0 0
279 24 2 -0.1737 -3.25759 15.0594 18.2243 0 0 0
280 24 1 -0.0639002 -4.22234 13.6746 18.7816 0 0 0
281 24 3 0.0403668 -1.15242 12.5197 17.5848 0 0 0
282 24 3 0.0403668 -1.12411 12.8661 19.2441 0 0 0
283 24 3 0.0403668 0.293948 13.3546 18.2492 0 0 0
284 24 4 0.1165 -0.983846 15.6666 17.6409 0 0 0
285 24 4 0.1165 -3.72653 16.0196 18.0344 0 0 0
286 24 3 0.0403668 -5.29276 13.7182 18.5604 0 0 0
287 24 3 0.0403668 -3.75866 12.7625 18.3947 0 0 0
288 24 3 0.0403668 -4.02247 13.6946 19.8569 0 0 0
289 25 1 -0.0639002 -0.796909 13.2802 21.7637 0 0 0
290 25 2 -0.1737 -1.61578 14.8547 21.4644 0 0 0
291 25 2 -0.1737 -3.25759 15.0594 21.702 0 0 0
292 25 1 -0.0639002 -4.22234 13.6746 22.2593 0 0 0
293 25 3 0.0403668 -1.15243 12.5196 21.0625 0 0 0
294 25 3 0.0403668 -1.12412 12.8661 22.7219 0 0 0
295 25 3 0.0403668 0.293861 13.3544 21.7267 0 0 0
296 25 4 0.1165 -0.983846 15.6666 21.1186 0 0 0
297 25 4 0.1165 -3.72653 16.0196 21.5121 0 0 0
298 25 3 0.0403668 -5.29276 13.7182 22.0381 0 0 0
299 25 3 0.0403668 -3.75866 12.7625 21.8724 0 0 0
300 25 3 0.0403668 -4.02247 13.6946 23.3346 0 0 0
301 26 1 -0.0639002 -0.796909 13.2802 25.2414 0 0 0
302 26 2 -0.1737 -1.61578 14.8547 24.9421 0 0 0
303 26 2 -0.1737 -3.25759 15.0594 25.1797 0 0 0
304 26 1 -0.0639002 -4.22234 13.6746 25.737 0 0 0
305 26 3 0.0403668 -1.15243 12.5196 24.5402 0 0 0
306 26 3 0.0403668 -1.12411 12.8661 26.1995 0 0 0
307 26 3 0.0403668 0.293861 13.3544 25.2044 0 0 0
308 26 4 0.1165 -0.983846 15.6666 24.5963 0 0 0
309 26 4 0.1165 -3.72653 16.0196 24.9897 0 0 0
310 26 3 0.0403668 -5.29276 13.7182 25.5158 0 0 0
311 26 3 0.0403668 -3.75866 12.7625 25.3501 0 0 0
312 26 3 0.0403668 -4.02247 13.6946 26.8123 0 0 0
313 27 1 -0.0639002 -0.79691 18.2331 0.897632 0 0 0
314 27 2 -0.1737 -1.61578 19.8076 0.598365 0 0 0
315 27 2 -0.1737 -3.25759 20.0122 0.835938 0 0 0
316 27 1 -0.0639002 -4.22234 18.6275 1.39325 0 0 0
317 27 3 0.0403668 -1.15243 17.4725 0.196423 0 0 0
318 27 3 0.0403668 -1.12411 17.819 1.85579 0 0 0
319 27 3 0.0403668 0.29386 18.3073 0.860616 0 0 0
320 27 4 0.1165 -0.983846 20.6194 0.252522 0 0 0
321 27 4 0.1165 -3.72653 20.9724 0.645986 0 0 0
322 27 3 0.0403668 -5.29276 18.671 1.17201 0 0 0
323 27 3 0.0403668 -3.75866 17.7154 1.00632 0 0 0
324 27 3 0.0403668 -4.02247 18.6474 2.46855 0 0 0
325 28 1 -0.0639002 -0.796817 18.2331 7.85299 0 0 0
326 28 2 -0.1737 -1.61578 19.8076 7.55372 0 0 0
327 28 2 -0.1737 -3.25759 20.0122 7.79129 0 0 0
328 28 1 -0.0639002 -4.22243 18.6274 8.34858 0 0 0
329 28 3 0.0403668 -1.15242 17.4725 7.15179 0 0 0
330 28 3 0.0403668 -1.1241 17.819 8.81112 0 0 0
331 28 3 0.0403668 0.293946 18.3075 7.8162 0 0 0
332 28 4 0.1165 -0.983846 20.6194 7.20788 0 0 0
333 28 4 0.1165 -3.72653 20.9724 7.60134 0 0 0
334 28 3 0.0403668 -5.29286 18.6707 8.12734 0 0 0
335 28 3 0.0403668 -3.75867 17.7154 7.96168 0 0 0
336 28 3 0.0403668 -4.02248 18.6474 9.42387 0 0 0
337 29 1 -0.0639002 -0.79691 18.2331 14.8083 0 0 0
338 29 2 -0.1737 -1.61578 19.8076 14.5091 0 0 0
339 29 2 -0.1737 -3.2576 20.0123 14.7466 0 0 0
340 29 1 -0.0639002 -4.22234 18.6275 15.304 0 0 0
341 29 3 0.0403668 -1.15243 17.4725 14.1071 0 0 0
342 29 3 0.0403668 -1.12411 17.819 15.7665 0 0 0
343 29 3 0.0403668 0.29386 18.3073 14.7713 0 0 0
344 29 4 0.1165 -0.983892 20.6195 14.1632 0 0 0
345 29 4 0.1165 -3.72636 20.9726 14.5568 0 0 0
346 29 3 0.0403668 -5.29276 18.671 15.0827 0 0 0
347 29 3 0.0403668 -3.75866 17.7154 14.917 0 0 0
348 29 3 0.0403668 -4.02248 18.6474 16.3793 0 0 0
349 30 1 -0.0639002 -0.796816 18.2331 18.286 0 0 0
350 30 2 -0.1737 -1.61578 19.8076 17.9868 0 0 0
351 30 2 -0.1737 -3.25759 20.0122 18.2243 0 0 0
352 30 1 -0.0639002 -4.22243 18.6274 18.7816 0 0 0
353 30 3 0.0403668 -1.15242 17.4725 17.5848 0 0 0
354 30 3 0.0403668 -1.12411 17.819 19.2441 0 0 0
355 30 3 0.0403668 0.293948 18.3075 18.2492 0 0 0
356 30 4 0.1165 -0.983846 20.6194 17.6409 0 0 0
357 30 4 0.1165 -3.72653 20.9724 18.0344 0 0 0
358 30 3 0.0403668 -5.29286 18.6707 18.5604 0 0 0
359 30 3 0.0403668 -3.75867 17.7154 18.3947 0 0 0
360 30 3 0.0403668 -4.02248 18.6474 19.8569 0 0 0
361 31 1 -0.0639002 -0.796909 18.2331 21.7637 0 0 0
362 31 2 -0.1737 -1.61578 19.8076 21.4644 0 0 0
363 31 2 -0.1737 -3.2576 20.0123 21.702 0 0 0
364 31 1 -0.0639002 -4.22234 18.6275 22.2593 0 0 0
365 31 3 0.0403668 -1.15243 17.4725 21.0625 0 0 0
366 31 3 0.0403668 -1.12412 17.819 22.7219 0 0 0
367 31 3 0.0403668 0.293861 18.3073 21.7267 0 0 0
368 31 4 0.1165 -0.983892 20.6195 21.1186 0 0 0
369 31 4 0.1165 -3.72636 20.9726 21.5122 0 0 0
370 31 3 0.0403668 -5.29276 18.671 22.0381 0 0 0
371 31 3 0.0403668 -3.75866 17.7154 21.8724 0 0 0
372 31 3 0.0403668 -4.02247 18.6474 23.3346 0 0 0
373 32 1 -0.0639002 -0.796816 18.2331 25.2414 0 0 0
374 32 2 -0.1737 -1.61578 19.8076 24.9421 0 0 0
375 32 2 -0.1737 -3.25759 20.0122 25.1797 0 0 0
376 32 1 -0.0639002 -4.22234 18.6275 25.737 0 0 0
377 32 3 0.0403668 -1.15242 17.4725 24.5402 0 0 0
378 32 3 0.0403668 -1.12411 17.819 26.1995 0 0 0
379 32 3 0.0403668 0.293948 18.3075 25.2046 0 0 0
380 32 4 0.1165 -0.983846 20.6194 24.5963 0 0 0
381 32 4 0.1165 -3.72653 20.9724 24.9897 0 0 0
382 32 3 0.0403668 -5.29276 18.671 25.5158 0 0 0
383 32 3 0.0403668 -3.75866 17.7154 25.3501 0 0 0
384 32 3 0.0403668 -4.02247 18.6474 26.8123 0 0 0
385 33 1 -0.0639002 -0.796816 23.1859 0.897632 0 0 0
386 33 2 -0.1737 -1.61578 24.7604 0.598365 0 0 0
387 33 2 -0.1737 -3.25759 24.9651 0.835938 0 0 0
388 33 1 -0.0639002 -4.22234 23.5803 1.39324 0 0 0
389 33 3 0.0403668 -1.15242 22.4254 0.196446 0 0 0
390 33 3 0.0403668 -1.12411 22.7718 1.85576 0 0 0
391 33 3 0.0403668 0.293948 23.2603 0.860845 0 0 0
392 33 4 0.1165 -0.983846 25.5723 0.252522 0 0 0
393 33 4 0.1165 -3.72653 25.9253 0.645986 0 0 0
394 33 3 0.0403668 -5.29276 23.6239 1.17201 0 0 0
395 33 3 0.0403668 -3.75866 22.6682 1.00632 0 0 0
396 33 3 0.0403668 -4.02247 23.6003 2.46854 0 0 0
397 34 1 -0.0639002 -0.79691 23.1859 4.37531 0 0 0
398 34 2 -0.1737 -1.61578 24.7604 4.07604 0 0 0
399 34 2 -0.1737 -3.25759 24.9651 4.31362 0 0 0
400 34 1 -0.0639002 -4.22233 23.5803 4.87091 0 0 0
401 34 3 0.0403668 -1.1524 22.4253 3.67414 0 0 0
402 34 3 0.0403668 -1.12412 22.7718 5.33346 0 0 0
403 34 3 0.0403668 0.29386 23.2601 4.33829 0 0 0
404 34 4 0.1165 -0.983846 25.5723 3.7302 0 0 0
405 34 4 0.1165 -3.72653 25.9253 4.12366 0 0 0
406 34 3 0.0403668 -5.29275 23.6239 4.64969 0 0 0
407 34 3 0.0403668 -3.75883 22.6681 4.48402 0 0 0
408 34 3 0.0403668 -4.02248 23.6003 5.94621 0 0 0
409 35 1 -0.0639002 -0.796909 23.1859 7.85299 0 0 0
410 35 2 -0.1737 -1.61578 24.7604 7.55372 0 0 0
411 35 2 -0.1737 -3.25759 24.9651 7.79129 0 0 0
412 35 1 -0.0639002 -4.22234 23.5803 8.3486 0 0 0
413 35 3 0.0403668 -1.15243 22.4253 7.15178 0 0 0
414 35 3 0.0403668 -1.12411 22.7718 8.81114 0 0 0
415 35 3 0.0403668 0.293861 23.2601 7.81597 0 0 0
416 35 4 0.1165 -0.983846 25.5723 7.20788 0 0 0
417 35 4 0.1165 -3.72653 25.9253 7.60134 0 0 0
418 35 3 0.0403668 -5.29276 23.6239 8.12736 0 0 0
419 35 3 0.0403668 -3.75866 22.6682 7.96167 0 0 0
420 35 3 0.0403668 -4.02247 23.6003 9.4239 0 0 0
421 36 1 -0.0639002 -0.796911 23.1859 11.3307 0 0 0
422 36 2 -0.1737 -1.61578 24.7604 11.0314 0 0 0
423 36 2 -0.1737 -3.25759 24.9651 11.269 0 0 0
424 36 1 -0.0639002 -4.22233 23.5803 11.8263 0 0 0
425 36 3 0.0403668 -1.1524 22.4253 10.6295 0 0 0
426 36 3 0.0403668 -1.12411 22.7718 12.2888 0 0 0
427 36 3 0.0403668 0.293859 23.2601 11.2937 0 0 0
428 36 4 0.1165 -0.983846 25.5723 10.6856 0 0 0
429 36 4 0.1165 -3.72653 25.9253 11.079 0 0 0
430 36 3 0.0403668 -5.29275 23.6239 11.605 0 0 0
431 36 3 0.0403668 -3.75883 22.6681 11.4394 0 0 0
432 36 3 0.0403668 -4.02248 23.6003 12.9016 0 0 0
433 37 1 -0.0639002 -0.79691 23.1859 18.286 0 0 0
434 37 2 -0.1737 -1.61578 24.7604 17.9868 0 0 0
435 37 2 -0.1737 -3.25759 24.9651 18.2243 0 0 0
436 37 1 -0.0639002 -4.22243 23.5803 18.7816 0 0 0
437 37 3 0.0403668 -1.15243 22.4253 17.5848 0 0 0
438 37 3 0.0403668 -1.12411 22.7718 19.2442 0 0 0
439 37 3 0.0403668 0.29386 23.2601 18.249 0 0 0
440 37 4 0.1165 -0.983846 25.5723 17.6409 0 0 0
441 37 4 0.1165 -3.72653 25.9253 18.0344 0 0 0
442 37 3 0.0403668 -5.29286 23.6236 18.5604 0 0 0
443 37 3 0.0403668 -3.75867 22.6682 18.3947 0 0 0
444 37 3 0.0403668 -4.02248 23.6003 19.8569 0 0 0
445 38 1 -0.0639002 -0.796817 23.1859 25.2414 0 0 0
446 38 2 -0.1737 -1.61578 24.7604 24.9421 0 0 0
447 38 2 -0.1737 -3.25759 24.9651 25.1797 0 0 0
448 38 1 -0.0639002 -4.22234 23.5803 25.737 0 0 0
449 38 3 0.0403668 -1.15242 22.4254 24.5402 0 0 0
450 38 3 0.0403668 -1.12411 22.7718 26.1995 0 0 0
451 38 3 0.0403668 0.293947 23.2603 25.2046 0 0 0
452 38 4 0.1165 -0.983846 25.5723 24.5963 0 0 0
453 38 4 0.1165 -3.72653 25.9253 24.9897 0 0 0
454 38 3 0.0403668 -5.29276 23.6239 25.5158 0 0 0
455 38 3 0.0403668 -3.75866 22.6682 25.3501 0 0 0
456 38 3 0.0403668 -4.02248 23.6003 26.8123 0 0 0
457 39 1 -0.0639002 -0.796909 28.1388 0.89763 0 0 0
458 39 2 -0.1737 -1.61578 29.7133 0.598365 0 0 0
459 39 2 -0.1737 -3.25759 29.9179 0.835938 0 0 0
460 39 1 -0.0639002 -4.22243 28.5331 1.39323 0 0 0
461 39 3 0.0403668 -1.15243 27.3782 0.196423 0 0 0
462 39 3 0.0403668 -1.12412 27.7247 1.85578 0 0 0
463 39 3 0.0403668 0.293861 28.213 0.860616 0 0 0
464 39 4 0.1165 -0.983846 30.5251 0.252522 0 0 0
465 39 4 0.1165 -3.72653 30.8781 0.645985 0 0 0
466 39 3 0.0403668 -5.29286 28.5764 1.17198 0 0 0
467 39 3 0.0403668 -3.75867 27.6211 1.00633 0 0 0
468 39 3 0.0403668 -4.02248 28.5531 2.46851 0 0 0
469 40 1 -0.0639002 -0.796909 28.1388 4.37531 0 0 0
470 40 2 -0.1737 -1.61578 29.7133 4.07604 0 0 0
471 40 2 -0.1737 -3.25759 29.9179 4.31362 0 0 0
472 40 1 -0.0639002 -4.22234 28.5332 4.87092 0 0 0
473 40 3 0.0403668 -1.15243 27.3782 3.6741 0 0 0
474 40 3 0.0403668 -1.12411 27.7247 5.33346 0 0 0
475 40 3 0.0403668 0.293861 28.213 4.33829 0 0 0
476 40 4 0.1165 -0.983846 30.5251 3.7302 0 0 0
477 40 4 0.1165 -3.72653 30.8781 4.12366 0 0 0
478 40 3 0.0403668 -5.29276 28.5767 4.64968 0 0 0
479 40 3 0.0403668 -3.75866 27.6211 4.48399 0 0 0
480 40 3 0.0403668 -4.02247 28.5531 5.94622 0 0 0
481 41 1 -0.0639002 -0.796909 28.1388 7.85299 0 0 0
482 41 2 -0.1737 -1.61578 29.7133 7.55372 0 0 0
483 41 2 -0.1737 -3.2576 29.918 7.79129 0 0 0
484 41 1 -0.0639002 -4.22243 28.5331 8.34858 0 0 0
485 41 3 0.0403668 -1.15243 27.3782 7.15178 0 0 0
486 41 3 0.0403668 -1.12411 27.7247 8.81114 0 0 0
487 41 3 0.0403668 0.293861 28.213 7.81597 0 0 0
488 41 4 0.1165 -0.983892 30.5252 7.20789 0 0 0
489 41 4 0.1165 -3.72636 30.8783 7.60149 0 0 0
490 41 3 0.0403668 -5.29286 28.5764 8.12734 0 0 0
491 41 3 0.0403668 -3.75867 27.6211 7.96168 0 0 0
492 41 3 0.0403668 -4.02248 28.5531 9.42387 0 0 0
493 42 1 -0.0639002 -0.79691 28.1388 11.3307 0 0 0
494 42 2 -0.1737 -1.61578 29.7133 11.0314 0 0 0
495 42 2 -0.1737 -3.25759 29.9179 11.269 0 0 0
496 42 1 -0.0639002 -4.22234 28.5332 11.8263 0 0 0
497 42 3 0.0403668 -1.15243 27.3782 10.6295 0 0 0
498 42 3 0.0403668 -1.12411 27.7247 12.2888 0 0 0
499 42 3 0.0403668 0.29386 28.213 11.2937 0 0 0
500 42 4 0.1165 -0.983846 30.5251 10.6856 0 0 0
501 42 4 0.1165 -3.72653 30.8781 11.079 0 0 0
502 42 3 0.0403668 -5.29276 28.5767 11.605 0 0 0
503 42 3 0.0403668 -3.75866 27.6211 11.4394 0 0 0
504 42 3 0.0403668 -4.02247 28.5531 12.9016 0 0 0
505 43 1 -0.0639002 -0.79691 28.1388 18.286 0 0 0
506 43 2 -0.1737 -1.61578 29.7133 17.9868 0 0 0
507 43 2 -0.1737 -3.25759 29.9179 18.2243 0 0 0
508 43 1 -0.0639002 -4.22234 28.5332 18.7816 0 0 0
509 43 3 0.0403668 -1.15243 27.3782 17.5848 0 0 0
510 43 3 0.0403668 -1.12411 27.7247 19.2442 0 0 0
511 43 3 0.0403668 0.29386 28.213 18.249 0 0 0
512 43 4 0.1165 -0.983846 30.5251 17.6409 0 0 0
513 43 4 0.1165 -3.72653 30.8781 18.0344 0 0 0
514 43 3 0.0403668 -5.29276 28.5767 18.5604 0 0 0
515 43 3 0.0403668 -3.75866 27.6211 18.3947 0 0 0
516 43 3 0.0403668 -4.02248 28.5531 19.8569 0 0 0
517 44 1 -0.0639002 -0.796817 28.1388 21.7637 0 0 0
518 44 2 -0.1737 -1.61578 29.7133 21.4644 0 0 0
519 44 2 -0.1737 -3.2576 29.918 21.702 0 0 0
520 44 1 -0.0639002 -4.22233 28.5331 22.2593 0 0 0
521 44 3 0.0403668 -1.15239 27.3782 21.0626 0 0 0
522 44 3 0.0403668 -1.12411 27.7247 22.7218 0 0 0
523 44 3 0.0403668 0.293946 28.2132 21.7269 0 0 0
524 44 4 0.1165 -0.983892 30.5252 21.1186 0 0 0
525 44 4 0.1165 -3.72636 30.8783 21.5122 0 0 0
526 44 3 0.0403668 -5.29275 28.5767 22.0381 0 0 0
527 44 3 0.0403668 -3.75883 27.6209 21.8724 0 0 0
528 44 3 0.0403668 -4.02248 28.5531 23.3346 0 0 0
529 45 1 -0.0639002 -0.796816 28.1388 25.2414 0 0 0
530 45 2 -0.1737 -1.61578 29.7133 24.9421 0 0 0
531 45 2 -0.1737 -3.25759 29.9179 25.1797 0 0 0
532 45 1 -0.0639002 -4.22243 28.5331 25.737 0 0 0
533 45 3 0.0403668 -1.15242 27.3782 24.5402 0 0 0
534 45 3 0.0403668 -1.12411 27.7247 26.1995 0 0 0
535 45 3 0.0403668 0.293948 28.2132 25.2046 0 0 0
536 45 4 0.1165 -0.983846 30.5251 24.5963 0 0 0
537 45 4 0.1165 -3.72653 30.8781 24.9897 0 0 0
538 45 3 0.0403668 -5.29286 28.5764 25.5157 0 0 0
539 45 3 0.0403668 -3.75867 27.6211 25.3501 0 0 0
540 45 3 0.0403668 -4.02248 28.5531 26.8123 0 0 0
541 46 1 -0.0639002 -0.796816 33.0916 0.897632 0 0 0
542 46 2 -0.1737 -1.61578 34.6661 0.598365 0 0 0
543 46 2 -0.1737 -3.25759 34.8708 0.835938 0 0 0
544 46 1 -0.0639002 -4.22234 33.486 1.39324 0 0 0
545 46 3 0.0403668 -1.15242 32.3311 0.196446 0 0 0
546 46 3 0.0403668 -1.12411 32.6775 1.85576 0 0 0
547 46 3 0.0403668 0.293948 33.166 0.860845 0 0 0
548 46 4 0.1165 -0.983846 35.478 0.252522 0 0 0
549 46 4 0.1165 -3.72653 35.831 0.645986 0 0 0
550 46 3 0.0403668 -5.29276 33.5295 1.17201 0 0 0
551 46 3 0.0403668 -3.75866 32.5739 1.00632 0 0 0
552 46 3 0.0403668 -4.02247 33.506 2.46854 0 0 0
553 47 1 -0.0639002 -0.79691 33.0916 4.37531 0 0 0
554 47 2 -0.1737 -1.61578 34.6661 4.07604 0 0 0
555 47 2 -0.1737 -3.25759 34.8708 4.31362 0 0 0
556 47 1 -0.0639002 -4.22234 33.486 4.87092 0 0 0
557 47 3 0.0403668 -1.15243 32.331 3.6741 0 0 0
558 47 3 0.0403668 -1.12411 32.6775 5.33347 0 0 0
559 47 3 0.0403668 0.29386 33.1658 4.33829 0 0 0
560 47 4 0.1165 -0.983846 35.478 3.7302 0 0 0
561 47 4 0.1165 -3.72653 35.831 4.12366 0 0 0
562 47 3 0.0403668 -5.29276 33.5295 4.64968 0 0 0
563 47 3 0.0403668 -3.75866 32.5739 4.48399 0 0 0
564 47 3 0.0403668 -4.02247 33.506 5.94622 0 0 0
565 48 1 -0.0639002 -0.79691 33.0916 11.3307 0 0 0
566 48 2 -0.1737 -1.61578 34.6661 11.0314 0 0 0
567 48 2 -0.1737 -3.25759 34.8708 11.269 0 0 0
568 48 1 -0.0639002 -4.22234 33.486 11.8263 0 0 0
569 48 3 0.0403668 -1.15243 32.331 10.6294 0 0 0
570 48 3 0.0403668 -1.12411 32.6775 12.2888 0 0 0
571 48 3 0.0403668 0.29386 33.1658 11.2937 0 0 0
572 48 4 0.1165 -0.983846 35.478 10.6856 0 0 0
573 48 4 0.1165 -3.72653 35.831 11.079 0 0 0
574 48 3 0.0403668 -5.29276 33.5295 11.605 0 0 0
575 48 3 0.0403668 -3.75866 32.5739 11.4394 0 0 0
576 48 3 0.0403668 -4.02248 33.506 12.9016 0 0 0
577 49 1 -0.0639002 -0.79691 33.0916 18.286 0 0 0
578 49 2 -0.1737 -1.61578 34.6661 17.9868 0 0 0
579 49 2 -0.1737 -3.25759 34.8708 18.2243 0 0 0
580 49 1 -0.0639002 -4.22234 33.486 18.7816 0 0 0
581 49 3 0.0403668 -1.15243 32.331 17.5848 0 0 0
582 49 3 0.0403668 -1.12411 32.6775 19.2442 0 0 0
583 49 3 0.0403668 0.29386 33.1658 18.249 0 0 0
584 49 4 0.1165 -0.983846 35.478 17.6409 0 0 0
585 49 4 0.1165 -3.72653 35.831 18.0344 0 0 0
586 49 3 0.0403668 -5.29276 33.5295 18.5604 0 0 0
587 49 3 0.0403668 -3.75866 32.5739 18.3947 0 0 0
588 49 3 0.0403668 -4.02248 33.506 19.8569 0 0 0
589 50 1 -0.0639002 -0.79691 33.0916 25.2414 0 0 0
590 50 2 -0.1737 -1.61578 34.6661 24.9421 0 0 0
591 50 2 -0.1737 -3.2576 34.8708 25.1797 0 0 0
592 50 1 -0.0639002 -4.22234 33.486 25.737 0 0 0
593 50 3 0.0403668 -1.15243 32.331 24.5402 0 0 0
594 50 3 0.0403668 -1.12411 32.6775 26.1995 0 0 0
595 50 3 0.0403668 0.29386 33.1658 25.2044 0 0 0
596 50 4 0.1165 -0.983892 35.478 24.5963 0 0 0
597 50 4 0.1165 -3.72636 35.8311 24.9899 0 0 0
598 50 3 0.0403668 -5.29276 33.5295 25.5158 0 0 0
599 50 3 0.0403668 -3.75866 32.5739 25.3501 0 0 0
600 50 3 0.0403668 -4.02248 33.506 26.8123 0 0 0
601 51 1 -0.0639002 6.619 -1.57831 0.897627 0 0 0
602 51 2 -0.1737 5.80013 -0.00380517 0.598363 0 0 0
603 51 2 -0.1737 4.1583 0.200859 0.835935 0 0 0
604 51 1 -0.0639002 3.19358 -1.18397 1.39323 0 0 0