ITEM: TIMESTEP
200
ITEM: NUMBER OF ATOMS
4800
ITEM: BOX BOUNDS xy xz yz pp pp pp
-6.7058223320538772e+00 5.3630185532054696e+01 0.0000000000000000e+00
-3.4765313354396881e+00 3.7011143335439662e+01 0.0000000000000000e+00
-1.0451734401972086e+00 2.8019488160197213e+01 0.0000000000000000e+00
ITEM: ATOMS id mol type q x y z ix iy iz
1 1 1 -0.0639002 -1.07845 -1.1113 26.9412 0 0 -1
2 1 2 -0.1737 -2.23487 -0.31247 27.787 0 0 -1
3 1 2 -0.1737 -3.5929 -0.331857 27.4523 0 0 -1
4 1 1 -0.0639002 -4.9837 0.0830086 -0.933319 0 0 0
5 1 3 0.0403668 -0.495991 -0.805925 26.067 0 0 -1
6 1 3 0.0403668 -1.37002 -2.15211 26.7728 0 0 -1
7 1 3 0.0403668 -0.162162 -1.26684 27.5181 0 0 -1
8 1 4 0.1165 -1.76149 0.350924 -0.560802 0 0 0
9 1 4 0.1165 -3.74054 -1.16736 26.7754 0 0 -1
10 1 3 0.0403668 -4.9537 0.56514 0.0482552 0 0 0
11 1 3 0.0403668 -5.73395 0.552186 27.4882 0 0 -1
12 1 3 0.0403668 -5.32809 -0.90317 -0.608514 0 0 0
13 2 1 -0.0639002 -2.60989 -2.73712 3.6887 0 0 0
14 2 2 -0.1737 -2.11788 -1.47384 4.50545 0 0 0
15 2 2 -0.1737 -2.77199 -0.267814 4.18746 0 0 0
16 2 1 -0.0639002 -4.06824 -0.123013 3.55088 0 0 0
17 2 3 0.0403668 -3.65929 -3.03259 3.77768 0 0 0
18 2 3 0.0403668 -1.92692 36.9056 3.81618 0 -1 0
19 2 3 0.0403668 -2.39086 -2.545 2.63421 0 0 0
20 2 4 0.1165 -1.15543 -1.29111 4.97257 0 0 0
21 2 4 0.1165 -2.31241 0.648567 4.54396 0 0 0
22 2 3 0.0403668 -4.11463 -0.028274 2.46199 0 0 0
23 2 3 0.0403668 -4.57692 -1.06265 3.78532 0 0 0
24 2 3 0.0403668 -4.59828 0.755294 3.93068 0 0 0
25 3 1 -0.0639002 -2.41297 -2.37634 7.97775 0 0 0
26 3 2 -0.1737 -2.60466 -0.831309 7.91346 0 0 0
27 3 2 -0.1737 -3.74715 -0.109205 8.43112 0 0 0
28 3 1 -0.0639002 -5.1314 -0.744659 8.05005 0 0 0
29 3 3 0.0403668 -2.38248 -2.85643 6.9952 0 0 0
30 3 3 0.0403668 -3.25509 -2.87713 8.46415 0 0 0
31 3 3 0.0403668 -1.55252 -2.56441 8.62647 0 0 0
32 3 4 0.1165 -1.61567 -0.391464 7.83407 0 0 0
33 3 4 0.1165 -3.75668 0.965411 8.58342 0 0 0
34 3 3 0.0403668 -5.23901 -1.51056 8.82373 0 0 0
35 3 3 0.0403668 -6.01656 -0.106724 8.12775 0 0 0
36 3 3 0.0403668 -5.18263 -1.24478 7.07841 0 0 0
37 4 1 -0.0639002 -1.19965 -0.656975 13.65 0 0 0
38 4 2 -0.1737 -2.49052 -0.960898 12.6997 0 0 0
39 4 2 -0.1737 -3.60913 -0.144345 12.8835 0 0 0
40 4 1 -0.0639002 -3.86214 0.307397 14.3177 0 0 0
41 4 3 0.0403668 -1.48138 -0.891914 14.6806 0 0 0
42 4 3 0.0403668 -1.00916 0.406433 13.4781 0 0 0
43 4 3 0.0403668 -0.270926 -1.23322 13.6062 0 0 0
44 4 4 0.1165 -2.17701 -1.22503 11.6946 0 0 0
45 4 4 0.1165 -4.42641 0.0557859 12.1979 0 0 0
46 4 3 0.0403668 -4.20717 -0.629506 14.7647 0 0 0
47 4 3 0.0403668 -3.08207 0.524524 15.0532 0 0 0
48 4 3 0.0403668 -4.58002 1.11275 14.4983 0 0 0
49 5 1 -0.0639002 -0.957314 -2.20787 18.0248 0 0 0
50 5 2 -0.1737 -2.08469 -1.21176 17.6434 0 0 0
51 5 2 -0.1737 -3.30451 -0.877693 18.1935 0 0 0
52 5 1 -0.0639002 -4.57276 -0.34328 17.7834 0 0 0
53 5 3 0.0403668 -0.123042 -1.60467 17.655 0 0 0
54 5 3 0.0403668 -0.729862 -3.10653 17.4439 0 0 0
55 5 3 0.0403668 -0.896213 -2.42051 19.0962 0 0 0
56 5 4 0.1165 -1.97462 -0.798578 16.6458 0 0 0
57 5 4 0.1165 -3.44256 -1.24537 19.2054 0 0 0
58 5 3 0.0403668 -5.21382 -0.865151 17.0669 0 0 0
59 5 3 0.0403668 -5.25416 -0.323685 18.6389 0 0 0
60 5 3 0.0403668 -4.67 0.581523 17.2072 0 0 0
61 6 1 -0.0639002 -0.557611 -1.64898 23.4647 0 0 0
62 6 2 -0.1737 -1.72365 -1.30826 22.4636 0 0 0
63 6 2 -0.1737 -3.08386 -1.35494 22.8418 0 0 0
64 6 1 -0.0639002 -3.49629 -0.671882 24.0938 0 0 0
65 6 3 0.0403668 -0.28249 -0.627658 23.7438 0 0 0
66 6 3 0.0403668 0.166106 -2.43037 23.2152 0 0 0
67 6 3 0.0403668 -0.93677 -2.03385 24.416 0 0 0
68 6 4 0.1165 -1.37771 -1.34078 21.4352 0 0 0
69 6 4 0.1165 -3.91737 -1.67224 22.2232 0 0 0
70 6 3 0.0403668 -3.40356 0.415737 24.0219 0 0 0
71 6 3 0.0403668 -4.5845 -0.739675 24.0065 0 0 0
72 6 3 0.0403668 -3.33372 -1.18421 25.0467 0 0 0
73 7 1 -0.0639002 -1.11491 3.12364 0.939127 0 0 0
74 7 2 -0.1737 -1.81443 4.27145 0.204826 0 0 0
75 7 2 -0.1737 -2.80629 4.9141 0.862918 0 0 0
76 7 1 -0.0639002 -3.88374 3.96113 1.4524 0 0 0
77 7 3 0.0403668 -0.117818 2.7033 0.7792 0 0 0
78 7 3 0.0403668 -1.79303 2.2655 0.920148 0 0 0
79 7 3 0.0403668 -0.925144 3.41407 1.97666 0 0 0
80 7 4 0.1165 -1.58241 4.50496 -0.829516 0 0 0
81 7 4 0.1165 -3.2039 5.79951 0.377076 0 0 0
82 7 3 0.0403668 -4.77332 4.58418 1.5828 0 0 0
83 7 3 0.0403668 -4.3129 3.2191 0.772739 0 0 0
84 7 3 0.0403668 -3.76781 3.6342 2.48994 0 0 0
85 8 1 -0.0639002 -1.1365 4.2786 5.86261 0 0 0
86 8 2 -0.1737 -1.79601 5.29669 4.93172 0 0 0
87 8 2 -0.1737 -3.14967 5.88451 5.28313 0 0 0
88 8 1 -0.0639002 -4.20255 5.26418 6.27358 0 0 0
89 8 3 0.0403668 -0.616419 4.73856 6.708 0 0 0
90 8 3 0.0403668 -0.417615 3.63153 5.35159 0 0 0
91 8 3 0.0403668 -1.89575 3.54417 6.14672 0 0 0
92 8 4 0.1165 -1.34035 5.64121 4.00877 0 0 0
93 8 4 0.1165 -3.42342 6.77655 4.72865 0 0 0
94 8 3 0.0403668 -3.72857 4.69783 7.08063 0 0 0
95 8 3 0.0403668 -4.95809 5.89548 6.75026 0 0 0
96 8 3 0.0403668 -4.75706 4.47129 5.76321 0 0 0
97 9 1 -0.0639002 -1.95521 3.34334 9.2669 0 0 0
98 9 2 -0.1737 -2.71189 3.29223 10.5743 0 0 0
99 9 2 -0.1737 -3.4801 4.25416 10.9674 0 0 0
100 9 1 -0.0639002 -4.52672 4.11199 11.868 0 0 0
101 9 3 0.0403668 -2.09784 2.41563 8.70497 0 0 0
102 9 3 0.0403668 -0.902368 3.61915 9.1579 0 0 0
103 9 3 0.0403668 -2.3803 4.17987 8.70455 0 0 0
104 9 4 0.1165 -2.95361 2.36113 11.077 0 0 0
105 9 4 0.1165 -3.2975 5.27515 10.6475 0 0 0
106 9 3 0.0403668 -5.2411 4.81816 11.4349 0 0 0
107 9 3 0.0403668 -5.11551 3.30736 12.3181 0 0 0
108 9 3 0.0403668 -4.13888 4.58073 12.7772 0 0 0
109 10 1 -0.0639002 -1.10707 2.99631 16.155 0 0 0
110 10 2 -0.1737 -2.12449 4.03468 16.7821 0 0 0
111 10 2 -0.1737 -3.35978 4.09178 16.1541 0 0 0
112 10 1 -0.0639002 -4.74888 4.67148 16.7888 0 0 0
113 10 3 0.0403668 -0.282568 3.3658 15.5384 0 0 0
114 10 3 0.0403668 -1.53217 2.30069 15.4255 0 0 0
115 10 3 0.0403668 -0.947912 2.48344 17.1081 0 0 0
116 10 4 0.1165 -1.77004 4.80219 17.4628 0 0 0
117 10 4 0.1165 -3.6301 3.40566 15.3576 0 0 0
118 10 3 0.0403668 -5.11318 4.32325 17.7598 0 0 0
119 10 3 0.0403668 -4.5423 5.68137 17.1551 0 0 0
120 10 3 0.0403668 -5.63711 4.65747 16.1506 0 0 0
121 11 1 -0.0639002 -3.00073 2.28471 21.9096 0 0 0
122 11 2 -0.1737 -3.05078 3.83255 22.0451 0 0 0
123 11 2 -0.1737 -4.11438 4.6231 21.594 0 0 0
124 11 1 -0.0639002 -5.44978 4.07565 21.2238 0 0 0
125 11 3 0.0403668 -3.89612 1.68641 21.7177 0 0 0
126 11 3 0.0403668 -2.47743 1.77665 22.7249 0 0 0
127 11 3 0.0403668 -2.38037 2.11319 21.025 0 0 0
128 11 4 0.1165 -2.24247 4.27967 22.6149 0 0 0
129 11 4 0.1165 -4.06839 5.70281 21.4931 0 0 0
130 11 3 0.0403668 -6.01077 4.78836 20.6123 0 0 0
131 11 3 0.0403668 -5.45404 3.15244 20.637 0 0 0
132 11 3 0.0403668 -6.00122 3.61617 22.0494 0 0 0
133 12 1 -0.0639002 -1.73284 2.51044 25.6382 0 0 0
134 12 2 -0.1737 -2.20442 3.95566 25.9633 0 0 0
135 12 2 -0.1737 -3.47403 4.37031 25.5236 0 0 0
136 12 1 -0.0639002 -4.72548 3.40986 25.4793 0 0 0
137 12 3 0.0403668 -2.6135 1.89251 25.836 0 0 0
138 12 3 0.0403668 -0.687118 2.32944 25.903 0 0 0
139 12 3 0.0403668 -1.46747 2.62891 24.5835 0 0 0
140 12 4 0.1165 -1.36556 4.6431 25.9226 0 0 0
141 12 4 0.1165 -3.63219 5.43764 25.4058 0 0 0
142 12 3 0.0403668 -5.70647 3.89328 25.4585 0 0 0
143 12 3 0.0403668 -4.88984 2.61579 24.745 0 0 0
144 12 3 0.0403668 -4.66551 2.90544 26.4482 0 0 0
145 13 1 -0.0639002 -0.975759 8.16387 2.58795 0 0 0
146 13 2 -0.1737 -2.42285 8.0024 1.86317 0 0 0
147 13 2 -0.1737 -3.6743 8.44667 2.39767 0 0 0
148 13 1 -0.0639002 -3.98729 9.09744 3.7864 0 0 0
149 13 3 0.0403668 -1.04557 8.40938 3.65176 0 0 0
150 13 3 0.0403668 -0.371979 8.95627 2.13605 0 0 0
151 13 3 0.0403668 -0.301154 7.30451 2.53301 0 0 0
152 13 4 0.1165 -2.43015 7.83766 0.790302 0 0 0
153 13 4 0.1165 -4.57618 8.42192 1.79438 0 0 0
154 13 3 0.0403668 -4.76072 8.71159 4.45686 0 0 0
155 13 3 0.0403668 -3.04297 9.16944 4.33378 0 0 0
156 13 3 0.0403668 -4.33792 10.1322 3.73141 0 0 0
157 14 1 -0.0639002 -2.36314 9.36585 8.63842 0 0 0
158 14 2 -0.1737 -3.0008 8.9658 9.89758 0 0 0
159 14 2 -0.1737 -4.34528 8.46709 10.0563 0 0 0
160 14 1 -0.0639002 -5.5944 9.09691 9.43831 0 0 0
161 14 3 0.0403668 -3.09986 9.60453 7.8658 0 0 0
162 14 3 0.0403668 -1.92816 8.45095 8.22557 0 0 0
163 14 3 0.0403668 -1.4784 10.0069 8.5857 0 0 0
164 14 4 0.1165 -2.37148 8.54065 10.673 0 0 0
165 14 4 0.1165 -4.52882 8.04911 11.0411 0 0 0
166 14 3 0.0403668 -6.43951 8.45246 9.17946 0 0 0
167 14 3 0.0403668 -6.0338 9.96868 9.93189 0 0 0
168 14 3 0.0403668 -5.18562 9.46012 8.49081 0 0 0
169 15 1 -0.0639002 -2.21484 6.98826 13.7137 0 0 0
170 15 2 -0.1737 -2.88398 8.28024 13.5964 0 0 0
171 15 2 -0.1737 -4.21253 8.36974 13.6009 0 0 0
172 15 1 -0.0639002 -5.22564 7.43636 14.1978 0 0 0
173 15 3 0.0403668 -2.26613 6.58558 14.7296 0 0 0
174 15 3 0.0403668 -1.23825 7.22982 13.2842 0 0 0
175 15 3 0.0403668 -2.55114 6.27084 12.9594 0 0 0
176 15 4 0.1165 -2.26861 9.02722 13.1052 0 0 0
177 15 4 0.1165 -4.66557 9.27289 13.2045 0 0 0
178 15 3 0.0403668 -4.98029 6.37232 14.1321 0 0 0
179 15 3 0.0403668 -5.45918 7.71017 15.2309 0 0 0
180 15 3 0.0403668 -6.21015 7.59219 13.7473 0 0 0
181 16 1 -0.0639002 -2.06146 7.42905 18.7131 0 0 0
182 16 2 -0.1737 -2.15806 8.94411 18.9356 0 0 0
183 16 2 -0.1737 -2.89559 9.70069 18.2667 0 0 0
184 16 1 -0.0639002 -4.16832 9.2918 17.8855 0 0 0
185 16 3 0.0403668 -1.60854 7.43229 17.7173 0 0 0
186 16 3 0.0403668 -3.00735 6.92828 18.4872 0 0 0
187 16 3 0.0403668 -1.50703 6.83667 19.4468 0 0 0
188 16 4 0.1165 -1.36854 9.49152 19.4405 0 0 0
189 16 4 0.1165 -2.55197 10.6977 18.01 0 0 0
190 16 3 0.0403668 -4.87924 9.38975 18.7111 0 0 0
191 16 3 0.0403668 -4.74805 9.86478 17.1559 0 0 0
192 16 3 0.0403668 -4.13946 8.30961 17.4046 0 0 0
193 17 1 -0.0639002 -1.81774 7.51753 22.8729 0 0 0
194 17 2 -0.1737 -1.83161 9.1355 23.3247 0 0 0
195 17 2 -0.1737 -2.94647 9.9462 23.1876 0 0 0
196 17 1 -0.0639002 -4.16638 9.32253 22.384 0 0 0
197 17 3 0.0403668 -1.0099 6.99591 22.3515 0 0 0
198 17 3 0.0403668 -2.74433 7.23868 22.3629 0 0 0
199 17 3 0.0403668 -1.76925 7.1325 23.8958 0 0 0
200 17 4 0.1165 -0.970551 9.63107 23.7616 0 0 0
201 17 4 0.1165 -2.88871 11.0176 23.3514 0 0 0
202 17 3 0.0403668 -5.0098 9.14443 23.0574 0 0 0
203 17 3 0.0403668 -4.56268 9.96834 21.5949 0 0 0
204 17 3 0.0403668 -4.20177 8.26956 22.0895 0 0 0
205 18 1 -0.0639002 -1.27828 7.66892 26.6294 0 0 0
206 18 2 -0.1737 -1.89575 9.0125 26.7827 0 0 0
207 18 2 -0.1737 -3.28941 9.08074 27.3014 0 0 0
208 18 1 -0.0639002 -4.34556 8.44538 26.3817 0 0 0
209 18 3 0.0403668 -0.625532 7.48527 25.771 0 0 0
210 18 3 0.0403668 -2.0322 6.89248 26.4702 0 0 0
211 18 3 0.0403668 -0.733958 7.43783 27.5497 0 0 0
212 18 4 0.1165 -1.25073 9.87385 26.6412 0 0 0
213 18 4 0.1165 -3.61783 9.94223 27.8742 0 0 0
214 18 3 0.0403668 -5.33489 8.77717 26.7098 0 0 0
215 18 3 0.0403668 -4.15801 8.59218 25.314 0 0 0
216 18 3 0.0403668 -4.50398 7.36378 26.4237 0 0 0
217 19 1 -0.0639002 -2.75387 12.8935 -0.192473 0 0 0
218 19 2 -0.1737 -2.99739 14.1812 0.370314 0 0 0
219 19 2 -0.1737 -4.14684 14.9573 0.474849 0 0 0
220 19 1 -0.0639002 -5.46018 14.2741 0.135177 0 0 0
221 19 3 0.0403668 -3.64055 12.5933 -0.758336 0 0 0
222 19 3 0.0403668 -2.60598 12.0054 0.428907 0 0 0
223 19 3 0.0403668 -1.95797 13.0713 -0.921516 0 0 0
224 19 4 0.1165 -2.07094 14.7356 0.480514 0 0 0
225 19 4 0.1165 -4.13644 15.9523 0.908425 0 0 0
226 19 3 0.0403668 -5.79833 14.7582 -0.785696 0 0 0
227 19 3 0.0403668 -5.53613 13.1849 0.0667485 0 0 0
228 19 3 0.0403668 -6.19287 14.3013 0.946983 0 0 0
229 20 1 -0.0639002 -2.73197 12.3412 3.43663 0 0 0
230 20 2 -0.1737 -2.05734 13.7428 3.41194 0 0 0
231 20 2 -0.1737 -2.62126 15.005 3.84285 0 0 0
232 20 1 -0.0639002 -4.15488 15.3186 4.30045 0 0 0
233 20 3 0.0403668 -3.80492 12.4361 3.62687 0 0 0
234 20 3 0.0403668 -2.27391 11.6708 4.16972 0 0 0
235 20 3 0.0403668 -2.40378 11.9258 2.47929 0 0 0
236 20 4 0.1165 -1.05524 13.6379 3.00861 0 0 0
237 20 4 0.1165 -1.91326 15.8271 3.81337 0 0 0
238 20 3 0.0403668 -3.94711 15.4414 5.36751 0 0 0
239 20 3 0.0403668 -4.61122 16.2406 3.92839 0 0 0
240 20 3 0.0403668 -4.83215 14.472 4.15531 0 0 0
241 21 1 -0.0639002 -2.41129 12.4616 7.2321 0 0 0
242 21 2 -0.1737 -2.80913 13.8303 7.52357 0 0 0
243 21 2 -0.1737 -4.11762 14.212 7.71441 0 0 0
244 21 1 -0.0639002 -5.50862 13.3676 7.64803 0 0 0
245 21 3 0.0403668 -1.98516 12.3088 6.23618 0 0 0
246 21 3 0.0403668 -3.32344 11.8596 7.18543 0 0 0
247 21 3 0.0403668 -1.9073 12.1079 8.13634 0 0 0
248 21 4 0.1165 -1.99748 14.5373 7.38459 0 0 0
249 21 4 0.1165 -4.29119 15.282 7.76969 0 0 0
250 21 3 0.0403668 -6.02349 13.527 8.60001 0 0 0
251 21 3 0.0403668 -6.22839 13.6933 6.89139 0 0 0
252 21 3 0.0403668 -5.44361 12.2948 7.44407 0 0 0
253 22 1 -0.0639002 -2.05974 13.1314 11.4342 0 0 0
254 22 2 -0.1737 -2.00523 14.6667 11.1378 0 0 0
255 22 2 -0.1737 -3.04067 15.6038 11.1861 0 0 0
256 22 1 -0.0639002 -4.46074 15.2379 10.5896 0 0 0
257 22 3 0.0403668 -3.06481 12.8763 11.086 0 0 0
258 22 3 0.0403668 -2.14541 12.7485 12.4554 0 0 0
259 22 3 0.0403668 -1.16065 12.6724 11.0129 0 0 0
260 22 4 0.1165 -1.03102 15.1406 11.073 0 0 0
261 22 4 0.1165 -2.69757 16.6328 11.2266 0 0 0
262 22 3 0.0403668 -4.97197 15.0269 11.5335 0 0 0
263 22 3 0.0403668 -4.84414 16.1918 10.2156 0 0 0
264 22 3 0.0403668 -4.35947 14.3509 9.95747 0 0 0
265 23 1 -0.0639002 -3.5967 12.4735 14.9066 0 0 0
266 23 2 -0.1737 -2.90719 13.7444 14.5979 0 0 0
267 23 2 -0.1737 -3.66236 14.9003 14.4 0 0 0
268 23 1 -0.0639002 -4.72428 15.3351 15.231 0 0 0
269 23 3 0.0403668 -3.22094 11.7284 14.1993 0 0 0
270 23 3 0.0403668 -4.67632 12.5626 14.7552 0 0 0
271 23 3 0.0403668 -3.20658 12.056 15.8394 0 0 0
272 23 4 0.1165 -1.90667 13.688 14.1812 0 0 0
273 23 4 0.1165 -3.20707 15.6501 13.7608 0 0 0
274 23 3 0.0403668 -4.42814 15.7776 16.1866 0 0 0
275 23 3 0.0403668 -5.44832 16.1098 14.9622 0 0 0
276 23 3 0.0403668 -5.52142 14.6316 15.4884 0 0 0
277 24 1 -0.0639002 -0.433343 13.2033 18.2692 0 0 0
278 24 2 -0.1737 -1.24337 14.416 18.1547 0 0 0
279 24 2 -0.1737 -2.68329 14.4819 18.3698 0 0 0
280 24 1 -0.0639002 -3.67373 13.2623 18.4138 0 0 0
281 24 3 0.0403668 0.528414 13.2084 18.7903 0 0 0
282 24 3 0.0403668 -0.354363 12.6934 17.3046 0 0 0
283 24 3 0.0403668 -0.988084 12.4505 18.8368 0 0 0
284 24 4 0.1165 -0.677736 15.2628 17.7791 0 0 0
285 24 4 0.1165 -3.14258 15.3976 18.0113 0 0 0
286 24 3 0.0403668 -4.59909 13.6959 18.804 0 0 0
287 24 3 0.0403668 -4.17651 12.6539 17.6564 0 0 0
288 24 3 0.0403668 -3.35075 12.5732 19.1996 0 0 0
289 25 1 -0.0639002 -2.09934 13.2202 21.8696 0 0 0
290 25 2 -0.1737 -2.35944 14.766 21.7331 0 0 0
291 25 2 -0.1737 -3.59096 15.2728 22.3234 0 0 0
292 25 1 -0.0639002 -4.76479 14.2524 21.9731 0 0 0
293 25 3 0.0403668 -2.58748 12.8297 20.9719 0 0 0
294 25 3 0.0403668 -2.61655 12.9429 22.7929 0 0 0
295 25 3 0.0403668 -1.05144 12.9072 21.8879 0 0 0
296 25 4 0.1165 -1.72494 15.5194 21.2773 0 0 0
297 25 4 0.1165 -3.77006 16.3395 22.4137 0 0 0
298 25 3 0.0403668 -4.74665 13.5708 21.1176 0 0 0
299 25 3 0.0403668 -5.17932 13.6164 22.7608 0 0 0
300 25 3 0.0403668 -5.67703 14.8511 21.897 0 0 0
301 26 1 -0.0639002 -1.38865 12.7376 25.6937 0 0 0
302 26 2 -0.1737 -1.54752 14.2223 26.0181 0 0 0
303 26 2 -0.1737 -2.72007 15.0264 26.0348 0 0 0
304 26 1 -0.0639002 -4.18334 14.4664 25.8546 0 0 0
305 26 3 0.0403668 -2.01065 12.1773 26.3979 0 0 0
306 26 3 0.0403668 -0.326879 12.4813 25.7523 0 0 0
307 26 3 0.0403668 -1.71955 12.5817 24.6627 0 0 0
308 26 4 0.1165 -0.692307 14.8737 25.8691 0 0 0
309 26 4 0.1165 -2.73238 16.1109 25.9933 0 0 0
310 26 3 0.0403668 -4.58008 14.0471 24.9253 0 0 0
311 26 3 0.0403668 -4.41889 13.5775 26.447 0 0 0
312 26 3 0.0403668 -4.76427 15.375 26.0382 0 0 0
313 27 1 -0.0639002 -1.1063 18.9459 2.51077 0 0 0
314 27 2 -0.1737 -1.82282 19.6644 1.565 0 0 0
315 27 2 -0.1737 -3.20591 19.8915 1.71577 0 0 0
316 27 1 -0.0639002 -4.0502 19.6566 2.89656 0 0 0
317 27 3 0.0403668 -1.4521 17.9604 2.83596 0 0 0
318 27 3 0.0403668 -1.3262 19.4833 3.43795 0 0 0
319 27 3 0.0403668 -0.0516758 19.1207 2.2791 0 0 0
320 27 4 0.1165 -1.24252 20.0391 0.727777 0 0 0
321 27 4 0.1165 -3.83169 20.3801 0.975692 0 0 0
322 27 3 0.0403668 -4.82778 20.424 2.95234 0 0 0
323 27 3 0.0403668 -4.51229 18.6775 3.05286 0 0 0
324 27 3 0.0403668 -3.38379 19.6163 3.76313 0 0 0
325 28 1 -0.0639002 -1.49577 18.6092 8.53041 0 0 0
326 28 2 -0.1737 -2.53449 18.6102 7.30093 0 0 0
327 28 2 -0.1737 -3.95141 18.9325 7.34689 0 0 0
328 28 1 -0.0639002 -4.66245 19.4059 8.5958 0 0 0
329 28 3 0.0403668 -1.70284 18.4294 9.58947 0 0 0
330 28 3 0.0403668 -1.14524 19.6453 8.51189 0 0 0
331 28 3 0.0403668 -0.646047 18.0311 8.15582 0 0 0
332 28 4 0.1165 -2.42364 18.1457 6.32614 0 0 0
333 28 4 0.1165 -4.52275 18.9479 6.42416 0 0 0
334 28 3 0.0403668 -5.47145 18.7093 8.83429 0 0 0
335 28 3 0.0403668 -3.96194 19.5793 9.41792 0 0 0
336 28 3 0.0403668 -5.28311 20.3065 8.57905 0 0 0
337 29 1 -0.0639002 -1.96037 19.2057 12.177 0 0 0
338 29 2 -0.1737 -2.14827 19.2883 13.7009 0 0 0
339 29 2 -0.1737 -3.09909 20.2241 14.2183 0 0 0
340 29 1 -0.0639002 -4.50028 20.3312 13.4459 0 0 0
341 29 3 0.0403668 -2.88836 19.5832 11.7378 0 0 0
342 29 3 0.0403668 -1.87188 18.1891 11.7829 0 0 0
343 29 3 0.0403668 -1.01334 19.6765 11.8976 0 0 0
344 29 4 0.1165 -1.3041 18.9776 14.3083 0 0 0
345 29 4 0.1165 -2.68684 20.659 15.1233 0 0 0
346 29 3 0.0403668 -4.80304 21.3824 13.4363 0 0 0
347 29 3 0.0403668 -4.68595 19.7162 12.5605 0 0 0
348 29 3 0.0403668 -5.15888 19.8775 14.1923 0 0 0
349 30 1 -0.0639002 -1.73188 18.4151 17.7159 0 0 0
350 30 2 -0.1737 -2.31327 19.4118 18.6465 0 0 0
351 30 2 -0.1737 -3.63984 19.7178 18.6713 0 0 0
352 30 1 -0.0639002 -4.73142 18.7873 18.2086 0 0 0
353 30 3 0.0403668 -1.2436 18.8377 16.8328 0 0 0
354 30 3 0.0403668 -2.41273 17.684 17.2701 0 0 0
355 30 3 0.0403668 -1.02791 17.7472 18.2208 0 0 0
356 30 4 0.1165 -1.56774 20.1564 18.9068 0 0 0
357 30 4 0.1165 -4.01786 20.6662 19.0399 0 0 0
358 30 3 0.0403668 -4.7983 18.6915 17.1209 0 0 0
359 30 3 0.0403668 -4.72399 17.73 18.4892 0 0 0
360 30 3 0.0403668 -5.67221 19.1382 18.6426 0 0 0
361 31 1 -0.0639002 -2.09129 19.0054 22.0086 0 0 0
362 31 2 -0.1737 -2.34638 20.4981 22.1134 0 0 0
363 31 2 -0.1737 -3.70374 20.9429 22.1688 0 0 0
364 31 1 -0.0639002 -4.89621 19.9863 22.4942 0 0 0
365 31 3 0.0403668 -2.81856 18.2029 21.8543 0 0 0
366 31 3 0.0403668 -1.7397 18.7319 23.0078 0 0 0
367 31 3 0.0403668 -1.27557 18.7999 21.3093 0 0 0
368 31 4 0.1165 -1.50537 21.0946 21.7747 0 0 0
369 31 4 0.1165 -3.76309 22.0053 21.9549 0 0 0
370 31 3 0.0403668 -5.09854 20.3497 23.506 0 0 0
371 31 3 0.0403668 -5.87928 20.1837 22.057 0 0 0
372 31 3 0.0403668 -4.69536 18.9129 22.5579 0 0 0
373 32 1 -0.0639002 -0.43929 18.4544 26.1154 0 0 0
374 32 2 -0.1737 -1.02505 19.9218 26.2241 0 0 0
375 32 2 -0.1737 -2.41611 20.2916 26.2377 0 0 0
376 32 1 -0.0639002 -3.56161 19.4612 26.8511 0 0 0
377 32 3 0.0403668 -0.0314639 18.1119 25.1598 0 0 0
378 32 3 0.0403668 -1.23422 17.7208 26.2781 0 0 0
379 32 3 0.0403668 0.351717 18.1963 26.8255 0 0 0
380 32 4 0.1165 -0.339583 20.6233 25.7594 0 0 0
381 32 4 0.1165 -2.78609 21.245 25.874 0 0 0
382 32 3 0.0403668 -3.70454 20.0177 27.7821 0 0 0
383 32 3 0.0403668 -4.59304 19.5081 26.49 0 0 0
384 32 3 0.0403668 -3.10449 18.4732 26.7439 0 0 0
385 33 1 -0.0639002 -0.425829 23.3522 -0.650155 0 0 0
386 33 2 -0.1737 -1.42568 24.4179 28.0079 0 0 -1
387 33 2 -0.1737 -2.79435 24.5815 -0.707693 0 0 0
388 33 1 -0.0639002 -3.48115 23.5776 0.172353 0 0 0
389 33 3 0.0403668 0.34069 23.0618 27.6901 0 0 -1
390 33 3 0.0403668 -0.899009 22.5169 -0.125723 0 0 0
391 33 3 0.0403668 0.266906 23.6046 0.158005 0 0 0
392 33 4 0.1165 -1.05679 25.1626 27.3098 0 0 -1
393 33 4 0.1165 -3.40518 25.4521 -0.924541 0 0 0
394 33 3 0.0403668 -4.54877 23.5041 -0.0539083 0 0 0
395 33 3 0.0403668 -2.93506 22.6302 0.20289 0 0 0
396 33 3 0.0403668 -3.6137 24.0665 1.14202 0 0 0
397 34 1 -0.0639002 -1.69444 22.166 4.53062 0 0 0
398 34 2 -0.1737 -1.89246 23.7648 4.58676 0 0 0
399 34 2 -0.1737 -3.09591 24.3481 4.2044 0 0 0
400 34 1 -0.0639002 -4.51733 23.7171 4.51691 0 0 0
401 34 3 0.0403668 -2.40411 21.876 3.75027 0 0 0
402 34 3 0.0403668 -2.14002 21.8016 5.46092 0 0 0
403 34 3 0.0403668 -0.646849 21.8573 4.59147 0 0 0
404 34 4 0.1165 -0.974063 24.2892 4.3429 0 0 0
405 34 4 0.1165 -3.14534 25.412 3.99497 0 0 0
406 34 3 0.0403668 -5.34354 23.5788 3.81348 0 0 0
407 34 3 0.0403668 -4.34851 22.7025 4.8896 0 0 0
408 34 3 0.0403668 -4.78535 24.1775 5.47245 0 0 0
409 35 1 -0.0639002 -1.78096 24.0465 7.92573 0 0 0
410 35 2 -0.1737 -2.49727 25.2457 8.59624 0 0 0
411 35 2 -0.1737 -3.92202 25.3077 8.48578 0 0 0
412 35 1 -0.0639002 -4.64361 24.0072 8.5664 0 0 0
413 35 3 0.0403668 -1.21452 23.385 8.58773 0 0 0
414 35 3 0.0403668 -1.12573 24.4872 7.16868 0 0 0
415 35 3 0.0403668 -2.48634 23.3623 7.44511 0 0 0
416 35 4 0.1165 -1.74427 26.0235 8.67359 0 0 0
417 35 4 0.1165 -4.53112 26.2043 8.54149 0 0 0
418 35 3 0.0403668 -5.56438 23.9697 9.15572 0 0 0
419 35 3 0.0403668 -4.94701 23.5961 7.59903 0 0 0
420 35 3 0.0403668 -4.30516 23.0658 9.00906 0 0 0
421 36 1 -0.0639002 -1.3337 23.0758 12.7885 0 0 0
422 36 2 -0.1737 -2.55082 23.8382 11.9886 0 0 0
423 36 2 -0.1737 -3.43991 24.8237 12.5287 0 0 0
424 36 1 -0.0639002 -3.61034 24.6995 14.123 0 0 0
425 36 3 0.0403668 -1.49413 21.9996 12.6759 0 0 0
426 36 3 0.0403668 -1.1683 23.4057 13.8184 0 0 0
427 36 3 0.0403668 -0.414858 23.4653 12.3407 0 0 0
428 36 4 0.1165 -2.5216 23.7022 10.9121 0 0 0
429 36 4 0.1165 -4.12605 25.4162 11.9319 0 0 0
430 36 3 0.0403668 -3.51966 25.6222 14.7036 0 0 0
431 36 3 0.0403668 -4.35478 23.992 14.4995 0 0 0
432 36 3 0.0403668 -2.70546 24.3841 14.6504 0 0 0
433 37 1 -0.0639002 -3.21842 23.3099 17.6638 0 0 0
434 37 2 -0.1737 -4.44255 24.3071 17.6895 0 0 0
435 37 2 -0.1737 -4.54524 25.1672 18.7984 0 0 0
436 37 1 -0.0639002 -4.26502 24.519 20.2551 0 0 0
437 37 3 0.0403668 -2.61448 23.8019 16.8958 0 0 0
438 37 3 0.0403668 -3.24261 22.2409 17.4325 0 0 0
439 37 3 0.0403668 -2.53505 23.4683 18.5032 0 0 0
440 37 4 0.1165 -4.65779 24.5966 16.6658 0 0 0
441 37 4 0.1165 -4.71553 26.2142 18.5685 0 0 0
442 37 3 0.0403668 -4.79017 23.5597 20.277 0 0 0
443 37 3 0.0403668 -3.21952 24.2264 20.3884 0 0 0
444 37 3 0.0403668 -4.52044 25.2077 21.0659 0 0 0
445 38 1 -0.0639002 -0.815282 23.2475 23.9818 0 0 0
446 38 2 -0.1737 -1.32193 24.7197 24.3507 0 0 0
447 38 2 -0.1737 -2.70444 24.9258 23.9515 0 0 0
448 38 1 -0.0639002 -3.80745 23.7974 24.0193 0 0 0
449 38 3 0.0403668 -1.47583 22.64 23.3563 0 0 0
450 38 3 0.0403668 -0.657374 22.6517 24.8857 0 0 0
451 38 3 0.0403668 0.191775 23.2815 23.5561 0 0 0
452 38 4 0.1165 -0.68033 25.5945 24.3827 0 0 0
453 38 4 0.1165 -3.22102 25.8543 24.1732 0 0 0
454 38 3 0.0403668 -3.34073 22.8112 24.0974 0 0 0
455 38 3 0.0403668 -4.30266 23.7083 24.9906 0 0 0
456 38 3 0.0403668 -4.48442 23.7798 23.1601 0 0 0
457 39 1 -0.0639002 -2.45151 28.0122 -0.116009 0 0 0
458 39 2 -0.1737 -2.96424 29.4083 0.6211 0 0 0
459 39 2 -0.1737 -4.25292 29.7643 0.87176 0 0 0
460 39 1 -0.0639002 -5.44432 28.8501 0.29301 0 0 0
461 39 3 0.0403668 -3.18362 27.3781 -0.624446 0 0 0
462 39 3 0.0403668 -1.80961 27.3745 0.498723 0 0 0
463 39 3 0.0403668 -1.69541 28.3962 -0.80699 0 0 0
464 39 4 0.1165 -2.09035 29.9638 0.946101 0 0 0
465 39 4 0.1165 -4.54866 30.521 1.59153 0 0 0
466 39 3 0.0403668 -5.1449 28.2522 -0.572781 0 0 0
467 39 3 0.0403668 -5.9039 28.0367 0.862136 0 0 0
468 39 3 0.0403668 -6.345 29.4002 0.0055633 0 0 0
469 40 1 -0.0639002 -1.27348 27.8762 4.34039 0 0 0
470 40 2 -0.1737 -1.15063 29.3562 3.64396 0 0 0
471 40 2 -0.1737 -2.23222 30.3621 3.51542 0 0 0
472 40 1 -0.0639002 -3.59079 30.3429 4.41172 0 0 0
473 40 3 0.0403668 -1.50781 27.0927 3.61383 0 0 0
474 40 3 0.0403668 -2.14559 27.9967 4.9896 0 0 0
475 40 3 0.0403668 -0.499943 27.7883 5.10885 0 0 0
476 40 4 0.1165 -0.33199 29.3231 2.93215 0 0 0
477 40 4 0.1165 -1.97727 31.3048 3.04168 0 0 0
478 40 3 0.0403668 -3.7013 29.3819 4.92247 0 0 0
479 40 3 0.0403668 -3.80992 31.0685 5.20056 0 0 0
480 40 3 0.0403668 -4.58003 30.3983 3.94822 0 0 0
481 41 1 -0.0639002 -2.49377 29.5 8.25783 0 0 0
482 41 2 -0.1737 -3.11836 30.6969 7.74606 0 0 0
483 41 2 -0.1737 -4.34061 31.0763 8.10571 0 0 0
484 41 1 -0.0639002 -5.13585 30.2201 9.0595 0 0 0
485 41 3 0.0403668 -1.75022 29.617 9.05162 0 0 0
486 41 3 0.0403668 -1.97055 29.0788 7.39433 0 0 0
487 41 3 0.0403668 -3.2008 28.7294 8.57875 0 0 0
488 41 4 0.1165 -2.60875 31.2302 6.94984 0 0 0
489 41 4 0.1165 -4.73041 31.9412 7.57842 0 0 0
490 41 3 0.0403668 -6.22018 30.2844 9.18804 0 0 0
491 41 3 0.0403668 -5.01239 29.1506 8.86531 0 0 0
492 41 3 0.0403668 -4.657 30.3347 10.0364 0 0 0
493 42 1 -0.0639002 -1.37095 27.8721 12.1801 0 0 0
494 42 2 -0.1737 -1.60336 29.412 12.5474 0 0 0
495 42 2 -0.1737 -2.90569 30.0322 12.8237 0 0 0
496 42 1 -0.0639002 -4.13085 29.2471 13.5555 0 0 0
497 42 3 0.0403668 -1.47546 27.3198 13.1187 0 0 0
498 42 3 0.0403668 -0.356905 27.6828 11.8163 0 0 0
499 42 3 0.0403668 -2.08361 27.4473 11.4672 0 0 0
500 42 4 0.1165 -0.70888 30.0179 12.4436 0 0 0
501 42 4 0.1165 -3.10451 31.0768 12.6057 0 0 0
502 42 3 0.0403668 -5.02457 29.1374 12.9344 0 0 0
503 42 3 0.0403668 -4.02558 28.2687 14.0335 0 0 0
504 42 3 0.0403668 -4.31461 29.8056 14.478 0 0 0
505 43 1 -0.0639002 -1.7913 28.0246 16.51 0 0 0
506 43 2 -0.1737 -2.01388 29.5072 16.2425 0 0 0
507 43 2 -0.1737 -3.15658 30.2222 16.6776 0 0 0
508 43 1 -0.0639002 -4.37238 29.6331 17.6385 0 0 0
509 43 3 0.0403668 -2.77474 27.6441 16.8008 0 0 0
510 43 3 0.0403668 -0.905143 27.8526 17.1278 0 0 0
511 43 3 0.0403668 -1.7422 27.4595 15.5745 0 0 0
512 43 4 0.1165 -1.23602 30.0693 15.7356 0 0 0
513 43 4 0.1165 -3.30409 31.1601 16.1516 0 0 0
514 43 3 0.0403668 -4.48647 28.5454 17.6615 0 0 0
515 43 3 0.0403668 -3.88418 29.6487 18.6173 0 0 0
516 43 3 0.0403668 -5.34467 30.134 17.6233 0 0 0
517 44 1 -0.0639002 -0.573127 29.0909 20.8521 0 0 0
518 44 2 -0.1737 -1.37171 30.2462 21.3445 0 0 0
519 44 2 -0.1737 -2.62835 30.155 21.9623 0 0 0
520 44 1 -0.0639002 -3.6651 29.0606 21.7955 0 0 0
521 44 3 0.0403668 -1.22112 28.2258 20.6838 0 0 0
522 44 3 0.0403668 0.225028 28.8438 21.5582 0 0 0
523 44 3 0.0403668 -0.238138 29.32 19.8362 0 0 0
524 44 4 0.1165 -0.883512 31.2156 21.3417 0 0 0
525 44 4 0.1165 -2.84503 31.0055 22.6009 0 0 0
526 44 3 0.0403668 -4.69281 29.4308 21.7384 0 0 0
527 44 3 0.0403668 -3.58367 28.6293 20.7934 0 0 0
528 44 3 0.0403668 -3.50444 28.3483 22.61 0 0 0
529 45 1 -0.0639002 -1.57163 28.7866 25.0948 0 0 0
530 45 2 -0.1737 -2.46312 30.063 25.4286 0 0 0
531 45 2 -0.1737 -3.78066 29.9675 25.6011 0 0 0
532 45 1 -0.0639002 -4.66523 28.6417 25.44 0 0 0
533 45 3 0.0403668 -2.09631 27.8985 24.7305 0 0 0
534 45 3 0.0403668 -0.938505 28.3328 25.8628 0 0 0
535 45 3 0.0403668 -0.887605 29.1506 24.3226 0 0 0
536 45 4 0.1165 -2.06902 31.0569 25.6154 0 0 0
537 45 4 0.1165 -4.35479 30.8742 25.7629 0 0 0
538 45 3 0.0403668 -5.50802 28.7889 24.7583 0 0 0
539 45 3 0.0403668 -4.12065 27.7757 25.0525 0 0 0
540 45 3 0.0403668 -5.26776 28.4717 26.337 0 0 0
541 46 1 -0.0639002 -1.31119 33.0724 -0.820096 0 0 0
542 46 2 -0.1737 -1.38597 34.461 0.00786635 0 0 0
543 46 2 -0.1737 -2.39779 34.679 0.855175 0 0 0
544 46 1 -0.0639002 -3.87447 34.2436 0.354581 0 0 0
545 46 3 0.0403668 -2.08329 32.3648 -0.504143 0 0 0
546 46 3 0.0403668 -0.43632 32.4158 -0.814514 0 0 0
547 46 3 0.0403668 -1.54268 33.2949 27.1987 0 0 -1
548 46 4 0.1165 -0.679343 35.2845 0.030301 0 0 0
549 46 4 0.1165 -2.42523 35.5117 1.55088 0 0 0
550 46 3 0.0403668 -4.08567 33.3673 -0.265346 0 0 0
551 46 3 0.0403668 -4.49569 34.1356 1.24854 0 0 0
552 46 3 0.0403668 -4.01643 35.1722 -0.206036 0 0 0
553 47 1 -0.0639002 -0.643908 33.7198 5.5642 0 0 0
554 47 2 -0.1737 -1.93958 34.1507 4.79063 0 0 0
555 47 2 -0.1737 -3.10246 34.2115 5.56884 0 0 0
556 47 1 -0.0639002 -3.12275 34.5439 7.0847 0 0 0
557 47 3 0.0403668 -0.709172 33.6748 6.65534 0 0 0
558 47 3 0.0403668 0.0829093 34.4132 5.13124 0 0 0
559 47 3 0.0403668 -0.306444 32.6915 5.40511 0 0 0
560 47 4 0.1165 -1.80675 34.0052 3.7232 0 0 0
561 47 4 0.1165 -4.0936 34.0178 5.17141 0 0 0
562 47 3 0.0403668 -3.40291 33.7057 7.72936 0 0 0
563 47 3 0.0403668 -2.0978 34.7807 7.3845 0 0 0
564 47 3 0.0403668 -3.68769 35.4194 7.4179 0 0 0
565 48 1 -0.0639002 -2.04172 33.3696 10.0294 0 0 0
566 48 2 -0.1737 -3.4815 33.4146 10.8787 0 0 0
567 48 2 -0.1737 -3.76064 34.3689 11.9478 0 0 0
568 48 1 -0.0639002 -2.78532 35.6683 12.3328 0 0 0
569 48 3 0.0403668 -2.13808 32.718 9.15594 0 0 0
570 48 3 0.0403668 -1.30739 32.9245 10.7071 0 0 0
571 48 3 0.0403668 -1.9592 34.456 10.1282 0 0 0
572 48 4 0.1165 -4.16109 32.5706 10.817 0 0 0
573 48 4 0.1165 -4.59874 34.2439 12.626 0 0 0
574 48 3 0.0403668 -2.94696 36.4954 11.6352 0 0 0
575 48 3 0.0403668 -2.68938 35.9535 13.3846 0 0 0
576 48 3 0.0403668 -1.773 35.4759 11.9657 0 0 0
577 49 1 -0.0639002 -1.2048 33.9251 17.7195 0 0 0
578 49 2 -0.1737 -2.66148 34.2342 17.3324 0 0 0
579 49 2 -0.1737 -3.47559 35.18 17.9571 0 0 0
580 49 1 -0.0639002 -3.65815 35.7525 19.2967 0 0 0
581 49 3 0.0403668 -0.620538 34.5372 17.0262 0 0 0
582 49 3 0.0403668 -1.35188 32.8815 17.4265 0 0 0
583 49 3 0.0403668 -0.679391 33.9342 18.679 0 0 0
584 49 4 0.1165 -2.73734 34.2647 16.25 0 0 0
585 49 4 0.1165 -4.02262 35.883 17.3369 0 0 0
586 49 3 0.0403668 -4.68842 35.9042 19.6312 0 0 0
587 49 3 0.0403668 -3.15694 35.1272 20.0413 0 0 0
588 49 3 0.0403668 -3.16211 36.7232 19.3878 0 0 0
589 50 1 -0.0639002 -3.37366 34.4167 23.13 0 0 0
590 50 2 -0.1737 -2.58079 34.8325 24.4726 0 0 0
591 50 2 -0.1737 -3.15009 35.613 25.6412 0 0 0
592 50 1 -0.0639002 -4.7004 35.9033 25.9539 0 0 0
593 50 3 0.0403668 -3.29886 33.3657 22.836 0 0 0
594 50 3 0.0403668 -3.18238 34.8785 22.1569 0 0 0
595 50 3 0.0403668 -4.44689 34.6129 23.2081 0 0 0
596 50 4 0.1165 -1.50962 34.6589 24.4892 0 0 0
597 50 4 0.1165 -2.37454 36.0634 26.2525 0 0 0
598 50 3 0.0403668 -5.33308 35.4802 25.1682 0 0 0
599 50 3 0.0403668 -5.01958 35.2554 26.7756 0 0 0
600 50 3 0.0403668 -4.90421 36.9779 25.9746 0 0 0
601 51 1 -0.0639002 5.23936 -2.78782 -0.293875 0 0 0
602 51 2 -0.1737 5.90371 -1.44158 -0.769751 0 0 0
603 51 2 -0.1737 5.19663 -0.224177 -0.549942 0 0 0
604 51 1 -0.0639002 3.61989 -0.176947 -0.431388 0 0 0