ITEM: TIMESTEP
600
ITEM: NUMBER OF ATOMS
4800
ITEM: BOX BOUNDS xy xz yz pp pp pp
-6.6850506599606341e+00 5.3609413859961435e+01 0.0000000000000000e+00
-3.5553184924061725e+00 3.7089930492406111e+01 0.0000000000000000e+00
-1.2059883496429418e+00 2.8180303069642960e+01 0.0000000000000000e+00
ITEM: ATOMS id mol type q x y z ix iy iz
1 1 1 -0.0639002 -1.08673 -1.04382 28.1387 0 0 -1
2 1 2 -0.1737 -2.4183 -0.223218 27.9984 0 0 -1
3 1 2 -0.1737 -3.80592 -0.631003 27.8929 0 0 -1
4 1 1 -0.0639002 -4.91329 0.188665 -0.929535 0 0 0
5 1 3 0.0403668 -0.191155 -0.444579 -1.05914 0 0 0
6 1 3 0.0403668 -0.860605 -1.29753 27.0989 0 0 -1
7 1 3 0.0403668 -0.99547 -1.94035 -0.627412 0 0 0
8 1 4 0.1165 -2.39078 0.808009 -1.05047 0 0 0
9 1 4 0.1165 -4.08975 -1.64356 27.6242 0 0 -1
10 1 3 0.0403668 -4.50808 1.1833 -0.721798 0 0 0
11 1 3 0.0403668 -5.69007 0.412243 27.7197 0 0 -1
12 1 3 0.0403668 -5.52395 -0.217599 -0.117911 0 0 0
13 2 1 -0.0639002 -2.74863 -2.83811 4.40009 0 0 0
14 2 2 -0.1737 -2.29396 -1.45094 4.51771 0 0 0
15 2 2 -0.1737 -2.56094 -0.363592 3.72428 0 0 0
16 2 1 -0.0639002 -3.52446 -0.14271 2.5924 0 0 0
17 2 3 0.0403668 -2.16192 -3.44331 5.09735 0 0 0
18 2 3 0.0403668 -2.49668 -3.23258 3.41134 0 0 0
19 2 3 0.0403668 -3.80502 -2.94002 4.66518 0 0 0
20 2 4 0.1165 -1.45907 -1.26361 5.18549 0 0 0
21 2 4 0.1165 -2.01202 0.533188 3.99357 0 0 0
22 2 3 0.0403668 -3.05627 0.414686 1.77582 0 0 0
23 2 3 0.0403668 -3.85604 -1.14204 2.29567 0 0 0
24 2 3 0.0403668 -4.3382 0.431995 3.04428 0 0 0
25 3 1 -0.0639002 -2.66078 -2.10439 8.93488 0 0 0
26 3 2 -0.1737 -2.98171 -0.698216 8.66201 0 0 0
27 3 2 -0.1737 -4.03877 -0.268506 8.13618 0 0 0
28 3 1 -0.0639002 -5.29627 -1.07052 7.92531 0 0 0
29 3 3 0.0403668 -1.92615 -2.46365 8.20829 0 0 0
30 3 3 0.0403668 -3.43691 -2.87508 8.91766 0 0 0
31 3 3 0.0403668 -2.02984 -2.15213 9.82726 0 0 0
32 3 4 0.1165 -2.28202 0.0713888 8.97213 0 0 0
33 3 4 0.1165 -4.11819 0.796167 7.94073 0 0 0
34 3 3 0.0403668 -6.00414 -1.01323 8.75738 0 0 0
35 3 3 0.0403668 -5.80142 -0.705616 7.02621 0 0 0
36 3 3 0.0403668 -5.02712 -2.12013 7.77528 0 0 0
37 4 1 -0.0639002 -0.820518 -0.24962 13.601 0 0 0
38 4 2 -0.1737 -2.11696 -0.836023 13.3109 0 0 0
39 4 2 -0.1737 -3.34737 -0.417677 13.6591 0 0 0
40 4 1 -0.0639002 -3.81993 0.810865 14.252 0 0 0
41 4 3 0.0403668 -0.0660037 -0.545085 12.8661 0 0 0
42 4 3 0.0403668 -0.411171 -0.741163 14.4885 0 0 0
43 4 3 0.0403668 -0.905238 0.840956 13.6113 0 0 0
44 4 4 0.1165 -2.04435 -1.69026 12.6453 0 0 0
45 4 4 0.1165 -4.18767 -1.08227 13.4852 0 0 0
46 4 3 0.0403668 -4.91371 0.79451 14.2505 0 0 0
47 4 3 0.0403668 -3.3944 0.992085 15.2434 0 0 0
48 4 3 0.0403668 -3.45324 1.70846 13.7455 0 0 0
49 5 1 -0.0639002 -0.731454 -1.92618 17.959 0 0 0
50 5 2 -0.1737 -1.91591 -1.07245 18.0203 0 0 0
51 5 2 -0.1737 -3.26176 -1.48042 18.31 0 0 0
52 5 1 -0.0639002 -4.53258 -0.681585 18.1256 0 0 0
53 5 3 0.0403668 0.237572 -1.50692 18.2451 0 0 0
54 5 3 0.0403668 -0.764767 -2.38056 16.9645 0 0 0
55 5 3 0.0403668 -0.866069 -2.79654 18.6079 0 0 0
56 5 4 0.1165 -1.52148 -0.0927528 17.77 0 0 0
57 5 4 0.1165 -3.51978 -2.49599 18.593 0 0 0
58 5 3 0.0403668 -5.07481 -1.29434 17.3995 0 0 0
59 5 3 0.0403668 -5.09631 -0.586304 19.0582 0 0 0
60 5 3 0.0403668 -4.4555 0.374644 17.8516 0 0 0
61 6 1 -0.0639002 -1.02085 -2.01583 23.1115 0 0 0
62 6 2 -0.1737 -1.8785 -1.81967 21.944 0 0 0
63 6 2 -0.1737 -3.03236 -1.23175 22.0446 0 0 0
64 6 1 -0.0639002 -3.80578 -1.17174 23.1853 0 0 0
65 6 3 0.0403668 -0.927026 -1.19024 23.823 0 0 0
66 6 3 0.0403668 0.00403385 -2.05675 22.7312 0 0 0
67 6 3 0.0403668 -1.40009 -2.9652 23.5007 0 0 0
68 6 4 0.1165 -1.65617 -1.96051 20.891 0 0 0
69 6 4 0.1165 -3.65181 -1.21156 21.1535 0 0 0
70 6 3 0.0403668 -3.45249 -1.71086 24.0692 0 0 0
71 6 3 0.0403668 -4.11235 -0.144761 23.4043 0 0 0
72 6 3 0.0403668 -4.69041 -1.75578 22.9152 0 0 0
73 7 1 -0.0639002 -1.01613 3.13852 1.6888 0 0 0
74 7 2 -0.1737 -1.61941 4.1428 0.855753 0 0 0
75 7 2 -0.1737 -2.91034 4.28076 0.706734 0 0 0
76 7 1 -0.0639002 -3.90616 4.01065 1.63038 0 0 0
77 7 3 0.0403668 -0.257792 2.85407 0.953483 0 0 0
78 7 3 0.0403668 -1.50278 2.21528 2.01661 0 0 0
79 7 3 0.0403668 -0.492393 3.42334 2.60602 0 0 0
80 7 4 0.1165 -0.962811 4.51156 0.0741141 0 0 0
81 7 4 0.1165 -3.30068 4.71705 -0.20726 0 0 0
82 7 3 0.0403668 -4.85362 3.62858 1.23924 0 0 0
83 7 3 0.0403668 -3.4919 3.40703 2.44322 0 0 0
84 7 3 0.0403668 -4.16321 4.94288 2.14181 0 0 0
85 8 1 -0.0639002 -1.3143 4.15133 5.81116 0 0 0
86 8 2 -0.1737 -2.17942 5.10573 5.11794 0 0 0
87 8 2 -0.1737 -3.33089 5.59276 5.52486 0 0 0
88 8 1 -0.0639002 -3.87125 5.25682 6.78792 0 0 0
89 8 3 0.0403668 -0.80795 4.56454 6.68842 0 0 0
90 8 3 0.0403668 -0.570009 3.76074 5.11106 0 0 0
91 8 3 0.0403668 -1.93743 3.37034 6.25661 0 0 0
92 8 4 0.1165 -1.96419 5.40884 4.09818 0 0 0
93 8 4 0.1165 -3.86148 6.22551 4.82047 0 0 0
94 8 3 0.0403668 -3.1677 5.34407 7.62104 0 0 0
95 8 3 0.0403668 -4.68008 5.98499 6.89843 0 0 0
96 8 3 0.0403668 -4.32316 4.26617 6.8929 0 0 0
97 9 1 -0.0639002 -1.59559 3.52755 9.73746 0 0 0
98 9 2 -0.1737 -2.73462 3.2145 10.5748 0 0 0
99 9 2 -0.1737 -3.77898 4.03185 10.8644 0 0 0
100 9 1 -0.0639002 -4.96433 3.47913 11.2228 0 0 0
101 9 3 0.0403668 -1.26035 2.82324 8.97048 0 0 0
102 9 3 0.0403668 -0.794415 3.56853 10.4812 0 0 0
103 9 3 0.0403668 -1.61419 4.43385 9.12514 0 0 0
104 9 4 0.1165 -2.65416 2.16108 10.8235 0 0 0
105 9 4 0.1165 -3.81053 5.00194 10.3786 0 0 0
106 9 3 0.0403668 -5.6241 3.43177 10.3515 0 0 0
107 9 3 0.0403668 -4.96706 2.40627 11.4364 0 0 0
108 9 3 0.0403668 -5.46648 4.0235 12.0279 0 0 0
109 10 1 -0.0639002 -1.12037 3.20894 15.5218 0 0 0
110 10 2 -0.1737 -2.18962 3.72928 16.3735 0 0 0
111 10 2 -0.1737 -3.31074 4.20644 15.8682 0 0 0
112 10 1 -0.0639002 -4.54308 4.51315 16.7532 0 0 0
113 10 3 0.0403668 -0.350332 3.86328 15.9408 0 0 0
114 10 3 0.0403668 -1.31604 3.15155 14.447 0 0 0
115 10 3 0.0403668 -0.68842 2.23879 15.7843 0 0 0
116 10 4 0.1165 -2.22605 3.43443 17.4175 0 0 0
117 10 4 0.1165 -3.23402 4.60302 14.8607 0 0 0
118 10 3 0.0403668 -4.21921 4.85236 17.7415 0 0 0
119 10 3 0.0403668 -5.18314 5.25739 16.2703 0 0 0
120 10 3 0.0403668 -5.19555 3.66379 16.9756 0 0 0
121 11 1 -0.0639002 -3.09149 2.36127 21.2813 0 0 0
122 11 2 -0.1737 -2.88726 3.73446 21.4959 0 0 0
123 11 2 -0.1737 -3.78914 4.66806 21.3583 0 0 0
124 11 1 -0.0639002 -5.14763 4.55301 20.8746 0 0 0
125 11 3 0.0403668 -4.09514 1.9418 21.3969 0 0 0
126 11 3 0.0403668 -2.51109 1.86078 22.0619 0 0 0
127 11 3 0.0403668 -2.64627 2.01614 20.3436 0 0 0
128 11 4 0.1165 -2.12745 3.99464 22.226 0 0 0
129 11 4 0.1165 -3.47076 5.66621 21.6418 0 0 0
130 11 3 0.0403668 -5.38039 5.51932 20.4177 0 0 0
131 11 3 0.0403668 -5.428 3.73361 20.2063 0 0 0
132 11 3 0.0403668 -5.78057 4.70697 21.7535 0 0 0
133 12 1 -0.0639002 -1.38021 2.81864 25.8902 0 0 0
134 12 2 -0.1737 -2.22355 3.99893 25.5221 0 0 0
135 12 2 -0.1737 -3.53727 4.15505 25.2497 0 0 0
136 12 1 -0.0639002 -4.52754 3.13458 25.4688 0 0 0
137 12 3 0.0403668 -1.89987 1.85666 25.8559 0 0 0
138 12 3 0.0403668 -1.04393 3.07131 26.9001 0 0 0
139 12 3 0.0403668 -0.680613 2.88898 25.0522 0 0 0
140 12 4 0.1165 -1.55664 4.82457 25.295 0 0 0
141 12 4 0.1165 -3.83124 5.1351 24.8876 0 0 0
142 12 3 0.0403668 -4.97398 2.68122 24.5789 0 0 0
143 12 3 0.0403668 -4.21378 2.3575 26.1719 0 0 0
144 12 3 0.0403668 -5.44533 3.59438 25.8468 0 0 0
145 13 1 -0.0639002 -1.31477 8.73842 3.16558 0 0 0
146 13 2 -0.1737 -2.60494 8.07897 2.50012 0 0 0
147 13 2 -0.1737 -3.973 8.33685 2.8829 0 0 0
148 13 1 -0.0639002 -4.34538 9.23931 4.19244 0 0 0
149 13 3 0.0403668 -1.55663 9.23871 4.10788 0 0 0
150 13 3 0.0403668 -0.770329 9.48481 2.57978 0 0 0
151 13 3 0.0403668 -0.606842 7.97369 3.49827 0 0 0
152 13 4 0.1165 -2.36204 7.52509 1.59883 0 0 0
153 13 4 0.1165 -4.78234 7.91395 2.29623 0 0 0
154 13 3 0.0403668 -4.75765 8.63213 5.00366 0 0 0
155 13 3 0.0403668 -3.54959 9.79644 4.69542 0 0 0
156 13 3 0.0403668 -5.06709 10.0051 3.89362 0 0 0
157 14 1 -0.0639002 -2.31954 8.4705 8.12806 0 0 0
158 14 2 -0.1737 -3.3668 7.6462 8.88689 0 0 0
159 14 2 -0.1737 -4.68506 8.00539 9.09557 0 0 0
160 14 1 -0.0639002 -5.21961 9.25133 8.52061 0 0 0
161 14 3 0.0403668 -1.59954 7.75779 7.71541 0 0 0
162 14 3 0.0403668 -1.73782 9.1079 8.80037 0 0 0
163 14 3 0.0403668 -2.83941 8.92481 7.27952 0 0 0
164 14 4 0.1165 -3.04394 6.61202 8.9519 0 0 0
165 14 4 0.1165 -5.42346 7.32373 9.50561 0 0 0
166 14 3 0.0403668 -5.83948 9.60824 9.3483 0 0 0
167 14 3 0.0403668 -4.42377 9.99789 8.44353 0 0 0
168 14 3 0.0403668 -5.88281 9.15254 7.65626 0 0 0
169 15 1 -0.0639002 -2.3464 7.155 13.8694 0 0 0
170 15 2 -0.1737 -3.17613 8.16431 13.1126 0 0 0
171 15 2 -0.1737 -4.4922 8.15836 12.981 0 0 0
172 15 1 -0.0639002 -5.40431 7.2383 13.6679 0 0 0
173 15 3 0.0403668 -2.54971 6.98204 14.9303 0 0 0
174 15 3 0.0403668 -1.30152 7.47856 13.8565 0 0 0
175 15 3 0.0403668 -2.48109 6.26601 13.2463 0 0 0
176 15 4 0.1165 -2.68953 8.98595 12.5967 0 0 0
177 15 4 0.1165 -4.95604 8.97466 12.4365 0 0 0
178 15 3 0.0403668 -4.87637 6.38253 14.0987 0 0 0
179 15 3 0.0403668 -5.71804 7.78449 14.5623 0 0 0
180 15 3 0.0403668 -6.20594 6.79778 13.0679 0 0 0
181 16 1 -0.0639002 -2.45209 7.06624 19.2962 0 0 0
182 16 2 -0.1737 -1.92952 8.16987 18.5658 0 0 0
183 16 2 -0.1737 -2.54546 8.9752 17.6688 0 0 0
184 16 1 -0.0639002 -3.89419 9.07837 17.146 0 0 0
185 16 3 0.0403668 -2.13403 6.10881 18.8734 0 0 0
186 16 3 0.0403668 -3.51905 7.1964 19.4995 0 0 0
187 16 3 0.0403668 -1.98245 7.1217 20.2827 0 0 0
188 16 4 0.1165 -1.02026 8.63065 18.9386 0 0 0
189 16 4 0.1165 -1.92584 9.80233 17.3372 0 0 0
190 16 3 0.0403668 -4.43885 8.13335 17.2293 0 0 0
191 16 3 0.0403668 -4.33657 9.89418 17.7252 0 0 0
192 16 3 0.0403668 -3.99819 9.32958 16.0864 0 0 0
193 17 1 -0.0639002 -1.56255 7.43743 23.7362 0 0 0
194 17 2 -0.1737 -2.05994 8.88424 24.0517 0 0 0
195 17 2 -0.1737 -3.0854 9.57754 23.3222 0 0 0
196 17 1 -0.0639002 -3.90015 9.2351 22.0411 0 0 0
197 17 3 0.0403668 -1.85488 6.83437 24.6008 0 0 0
198 17 3 0.0403668 -0.474606 7.41266 23.8475 0 0 0
199 17 3 0.0403668 -1.79329 7.16528 22.7021 0 0 0
200 17 4 0.1165 -1.4571 9.31956 24.8424 0 0 0
201 17 4 0.1165 -3.27337 10.6152 23.5789 0 0 0
202 17 3 0.0403668 -4.90149 9.6545 21.9067 0 0 0
203 17 3 0.0403668 -3.38672 9.49616 21.1111 0 0 0
204 17 3 0.0403668 -3.87066 8.1423 22.0019 0 0 0
205 18 1 -0.0639002 -1.42636 7.51231 -1.01608 0 0 1
206 18 2 -0.1737 -1.97337 8.78073 -1.07356 0 0 1
207 18 2 -0.1737 -3.1036 9.16967 27.7201 0 0 0
208 18 1 -0.0639002 -4.06141 8.18657 27.2304 0 0 0
209 18 3 0.0403668 -1.98726 6.71412 -0.521176 0 0 1
210 18 3 0.0403668 -0.428083 7.61023 -0.57963 0 0 1
211 18 3 0.0403668 -1.30878 7.24562 27.3158 0 0 0
212 18 4 0.1165 -1.35003 9.5634 -0.652939 0 0 1
213 18 4 0.1165 -3.21847 10.2477 27.7718 0 0 0
214 18 3 0.0403668 -5.05338 8.57224 27.4831 0 0 0
215 18 3 0.0403668 -4.06679 8.15227 26.137 0 0 0
216 18 3 0.0403668 -4.02635 7.18195 27.6618 0 0 0
217 19 1 -0.0639002 -3.38742 13.055 0.187934 0 0 0
218 19 2 -0.1737 -3.72605 14.4741 0.0903317 0 0 0
219 19 2 -0.1737 -4.88045 15.0699 -0.33061 0 0 0
220 19 1 -0.0639002 -6.27013 14.4052 -0.20538 0 0 0
221 19 3 0.0403668 -3.85418 12.5799 1.05573 0 0 0
222 19 3 0.0403668 -2.30373 12.9081 0.214159 0 0 0
223 19 3 0.0403668 -3.78607 12.5776 -0.712008 0 0 0
224 19 4 0.1165 -2.80178 15.0431 0.0896985 0 0 0
225 19 4 0.1165 -4.72237 16.1371 -0.449745 0 0 0
226 19 3 0.0403668 -6.45538 13.3894 0.155876 0 0 0
227 19 3 0.0403668 53.4391 14.9935 0.507473 -1 0 0
228 19 3 0.0403668 -6.65295 14.5276 28.1635 0 0 -1
229 20 1 -0.0639002 -3.12391 12.6036 3.95831 0 0 0
230 20 2 -0.1737 -2.12828 13.6524 3.96249 0 0 0
231 20 2 -0.1737 -2.237 14.9572 3.77409 0 0 0
232 20 1 -0.0639002 -3.63468 15.5415 3.63422 0 0 0
233 20 3 0.0403668 -2.49722 11.708 3.91559 0 0 0
234 20 3 0.0403668 -3.84119 12.718 3.14032 0 0 0
235 20 3 0.0403668 -3.76552 12.6128 4.8443 0 0 0
236 20 4 0.1165 -1.13734 13.2115 3.92139 0 0 0
237 20 4 0.1165 -1.36723 15.5705 3.98733 0 0 0
238 20 3 0.0403668 -3.75835 16.5271 4.09232 0 0 0
239 20 3 0.0403668 -3.82874 15.6467 2.56276 0 0 0
240 20 3 0.0403668 -4.39165 14.9169 4.1175 0 0 0
241 21 1 -0.0639002 -2.25386 13.4128 7.41326 0 0 0
242 21 2 -0.1737 -3.39868 14.4658 7.0499 0 0 0
243 21 2 -0.1737 -4.70254 14.2764 6.72329 0 0 0
244 21 1 -0.0639002 -5.3846 12.9741 6.97369 0 0 0
245 21 3 0.0403668 -1.54031 13.7787 8.15737 0 0 0
246 21 3 0.0403668 -1.73197 13.3024 6.45819 0 0 0
247 21 3 0.0403668 -2.62743 12.4101 7.64033 0 0 0
248 21 4 0.1165 -2.93089 15.4425 6.9774 0 0 0
249 21 4 0.1165 -5.31173 15.0685 6.29969 0 0 0
250 21 3 0.0403668 -5.64141 12.9228 8.03583 0 0 0
251 21 3 0.0403668 -6.27653 12.8925 6.34561 0 0 0
252 21 3 0.0403668 -4.67257 12.1602 6.80874 0 0 0
253 22 1 -0.0639002 -1.99209 12.7675 11.106 0 0 0
254 22 2 -0.1737 -1.87766 14.1917 11.0422 0 0 0
255 22 2 -0.1737 -2.87953 14.9698 10.7603 0 0 0
256 22 1 -0.0639002 -4.30661 14.6767 11.0223 0 0 0
257 22 3 0.0403668 -1.22562 12.4248 10.4048 0 0 0
258 22 3 0.0403668 -2.92253 12.4388 10.6339 0 0 0
259 22 3 0.0403668 -1.65735 12.4241 12.0893 0 0 0
260 22 4 0.1165 -0.864872 14.5805 11.0758 0 0 0
261 22 4 0.1165 -2.71021 16.0304 10.6033 0 0 0
262 22 3 0.0403668 -4.48297 14.9787 12.0588 0 0 0
263 22 3 0.0403668 -4.7701 15.2393 10.2066 0 0 0
264 22 3 0.0403668 -4.37593 13.5852 11.0021 0 0 0
265 23 1 -0.0639002 -4.40638 12.8815 14.2127 0 0 0
266 23 2 -0.1737 -3.68939 13.9415 14.851 0 0 0
267 23 2 -0.1737 -4.14836 15.1245 15.1823 0 0 0
268 23 1 -0.0639002 -5.47284 15.7762 15.0025 0 0 0
269 23 3 0.0403668 -5.31453 12.5503 14.7248 0 0 0
270 23 3 0.0403668 -3.64113 12.1222 14.0272 0 0 0
271 23 3 0.0403668 -4.70828 13.1923 13.2083 0 0 0
272 23 4 0.1165 -2.62988 13.7951 15.0355 0 0 0
273 23 4 0.1165 -3.35608 15.7578 15.5685 0 0 0
274 23 3 0.0403668 -5.75748 16.5699 15.6994 0 0 0
275 23 3 0.0403668 -5.65717 16.0501 13.9596 0 0 0
276 23 3 0.0403668 -6.33478 15.1347 15.2079 0 0 0
277 24 1 -0.0639002 -0.645763 12.4361 18.0113 0 0 0
278 24 2 -0.1737 -1.20417 13.8739 17.7642 0 0 0
279 24 2 -0.1737 -2.40506 14.3802 18.0993 0 0 0
280 24 1 -0.0639002 -3.58945 13.5665 18.5878 0 0 0
281 24 3 0.0403668 0.202161 12.4491 18.7023 0 0 0
282 24 3 0.0403668 -0.19785 11.9948 17.1161 0 0 0
283 24 3 0.0403668 -1.3488 11.7267 18.4577 0 0 0
284 24 4 0.1165 -0.617805 14.4932 17.0928 0 0 0
285 24 4 0.1165 -2.55575 15.4511 18.0072 0 0 0
286 24 3 0.0403668 -4.61303 13.9322 18.7112 0 0 0
287 24 3 0.0403668 -3.43343 12.7243 17.9074 0 0 0
288 24 3 0.0403668 -3.16806 13.1199 19.4932 0 0 0
289 25 1 -0.0639002 -1.9313 14.1391 22.2592 0 0 0
290 25 2 -0.1737 -2.64618 15.3487 21.7696 0 0 0
291 25 2 -0.1737 -3.97757 15.3178 21.4296 0 0 0
292 25 1 -0.0639002 -4.85662 14.2443 21.7294 0 0 0
293 25 3 0.0403668 -2.45628 13.2023 22.4674 0 0 0
294 25 3 0.0403668 -1.31147 14.594 23.0374 0 0 0
295 25 3 0.0403668 -1.18021 13.9574 21.4849 0 0 0
296 25 4 0.1165 -2.02636 16.2397 21.7767 0 0 0
297 25 4 0.1165 -4.32125 16.2195 20.9328 0 0 0
298 25 3 0.0403668 -5.79852 14.5294 21.2517 0 0 0
299 25 3 0.0403668 -4.61703 13.2876 21.256 0 0 0
300 25 3 0.0403668 -5.10168 14.1177 22.788 0 0 0
301 26 1 -0.0639002 -0.865092 12.349 25.4049 0 0 0
302 26 2 -0.1737 -0.951169 13.615 26.2164 0 0 0
303 26 2 -0.1737 -2.17505 14.2909 26.3543 0 0 0
304 26 1 -0.0639002 -3.38245 13.6893 25.631 0 0 0
305 26 3 0.0403668 -0.12912 11.6671 25.8409 0 0 0
306 26 3 0.0403668 -0.639611 12.6022 24.3648 0 0 0
307 26 3 0.0403668 -1.75377 11.7234 25.5299 0 0 0
308 26 4 0.1165 0.054443 13.936 26.469 0 0 0
309 26 4 0.1165 -2.11393 15.2556 26.8479 0 0 0
310 26 3 0.0403668 -3.17221 13.1974 24.6768 0 0 0
311 26 3 0.0403668 -3.88401 13.0994 26.4037 0 0 0
312 26 3 0.0403668 -4.1831 14.3869 25.3683 0 0 0
313 27 1 -0.0639002 -0.871484 18.8328 3.00212 0 0 0
314 27 2 -0.1737 -1.93737 19.5566 2.10028 0 0 0
315 27 2 -0.1737 -3.24243 19.6296 2.1627 0 0 0
316 27 1 -0.0639002 -3.94007 19.4265 3.51041 0 0 0
317 27 3 0.0403668 -1.06671 19.0794 4.04987 0 0 0
318 27 3 0.0403668 0.182735 19.0522 2.80962 0 0 0
319 27 3 0.0403668 -1.19136 17.7895 2.9246 0 0 0
320 27 4 0.1165 -1.48348 19.9674 1.20398 0 0 0
321 27 4 0.1165 -3.73451 19.9814 1.26149 0 0 0
322 27 3 0.0403668 -3.91336 20.3217 4.13854 0 0 0
323 27 3 0.0403668 -5.0036 19.2026 3.38627 0 0 0
324 27 3 0.0403668 -3.49357 18.7488 4.24391 0 0 0
325 28 1 -0.0639002 -1.42479 18.8907 7.75082 0 0 0
326 28 2 -0.1737 -2.55294 18.2239 7.07614 0 0 0
327 28 2 -0.1737 -3.87447 18.5843 7.39803 0 0 0
328 28 1 -0.0639002 -4.35178 19.748 8.1137 0 0 0
329 28 3 0.0403668 -1.08624 18.2204 8.54627 0 0 0
330 28 3 0.0403668 -1.61548 19.9215 8.06356 0 0 0
331 28 3 0.0403668 -0.641605 19.0774 7.01025 0 0 0
332 28 4 0.1165 -2.47224 17.4134 6.35876 0 0 0
333 28 4 0.1165 -4.55209 17.9158 6.87661 0 0 0
334 28 3 0.0403668 -5.2742 20.0703 7.62184 0 0 0
335 28 3 0.0403668 -4.71544 19.5289 9.1219 0 0 0
336 28 3 0.0403668 -3.64055 20.5791 8.11135 0 0 0
337 29 1 -0.0639002 -2.04374 19.9984 12.0969 0 0 0
338 29 2 -0.1737 -2.26611 19.8837 13.492 0 0 0
339 29 2 -0.1737 -3.4815 19.884 14.0878 0 0 0
340 29 1 -0.0639002 -4.71711 20.0004 13.2398 0 0 0
341 29 3 0.0403668 -1.02021 19.7073 11.8433 0 0 0
342 29 3 0.0403668 -2.48302 20.9128 11.6876 0 0 0
343 29 3 0.0403668 -2.63631 19.2214 11.6051 0 0 0
344 29 4 0.1165 -1.44342 19.7968 14.1946 0 0 0
345 29 4 0.1165 -3.58391 19.9539 15.1661 0 0 0
346 29 3 0.0403668 -4.85161 19.028 12.757 0 0 0
347 29 3 0.0403668 -5.56826 20.0118 13.9269 0 0 0
348 29 3 0.0403668 -4.68289 20.9136 12.6385 0 0 0
349 30 1 -0.0639002 -1.58577 18.7782 17.7478 0 0 0
350 30 2 -0.1737 -2.60468 19.7178 18.3227 0 0 0
351 30 2 -0.1737 -3.96081 19.4484 18.4282 0 0 0
352 30 1 -0.0639002 -4.50509 18.1578 17.6779 0 0 0
353 30 3 0.0403668 -1.41695 18.7062 16.6693 0 0 0
354 30 3 0.0403668 -1.78621 17.7534 18.0739 0 0 0
355 30 3 0.0403668 -0.584505 18.9902 18.134 0 0 0
356 30 4 0.1165 -2.20237 20.6696 18.6547 0 0 0
357 30 4 0.1165 -4.63029 20.2078 18.8197 0 0 0
358 30 3 0.0403668 -3.94887 17.231 17.8463 0 0 0
359 30 3 0.0403668 -5.55575 17.919 17.867 0 0 0
360 30 3 0.0403668 -4.30838 18.2972 16.6108 0 0 0
361 31 1 -0.0639002 -1.81852 19.2272 22.7373 0 0 0
362 31 2 -0.1737 -2.40786 20.2816 21.8186 0 0 0
363 31 2 -0.1737 -3.74988 20.8193 21.7622 0 0 0
364 31 1 -0.0639002 -4.9847 20.3299 22.5698 0 0 0
365 31 3 0.0403668 -2.2521 18.2231 22.7572 0 0 0
366 31 3 0.0403668 -1.66016 19.4715 23.7918 0 0 0
367 31 3 0.0403668 -0.78909 18.9847 22.4578 0 0 0
368 31 4 0.1165 -1.81218 20.723 21.0258 0 0 0
369 31 4 0.1165 -4.03738 21.5967 21.0615 0 0 0
370 31 3 0.0403668 -5.78893 20.9172 23.0224 0 0 0
371 31 3 0.0403668 -5.4595 19.6458 21.8604 0 0 0
372 31 3 0.0403668 -4.66122 19.7036 23.4064 0 0 0
373 32 1 -0.0639002 -0.379128 19.0007 26.7128 0 0 0
374 32 2 -0.1737 -0.637115 20.4292 26.8403 0 0 0
375 32 2 -0.1737 -1.82682 20.8871 26.6025 0 0 0
376 32 1 -0.0639002 -3.00857 19.9479 26.661 0 0 0
377 32 3 0.0403668 -0.862506 18.406 27.4935 0 0 0
378 32 3 0.0403668 0.666561 18.6822 26.7546 0 0 0
379 32 3 0.0403668 -0.637899 18.6242 25.7188 0 0 0
380 32 4 0.1165 0.157437 21.1527 26.688 0 0 0
381 32 4 0.1165 -2.00323 21.9504 26.4753 0 0 0
382 32 3 0.0403668 -3.87428 20.5613 26.9271 0 0 0
383 32 3 0.0403668 -2.96536 19.6198 25.6183 0 0 0
384 32 3 0.0403668 -2.80409 19.2544 27.482 0 0 0
385 33 1 -0.0639002 -0.0921416 23.6383 -0.733628 0 0 0
386 33 2 -0.1737 -1.17872 24.3918 27.7826 0 0 -1
387 33 2 -0.1737 -2.5681 24.2016 27.973 0 0 -1
388 33 1 -0.0639002 -3.09801 23.2359 -0.161573 0 0 0
389 33 3 0.0403668 0.399662 22.8701 28.0488 0 0 -1
390 33 3 0.0403668 -0.498715 22.9331 -0.00282228 0 0 0
391 33 3 0.0403668 0.554146 24.3895 -0.270312 0 0 0
392 33 4 0.1165 -0.759954 25.0856 27.0606 0 0 -1
393 33 4 0.1165 -3.21573 24.8446 27.3855 0 0 -1
394 33 3 0.0403668 -2.68922 23.4997 0.818227 0 0 0
395 33 3 0.0403668 -4.13459 23.5372 0.0154755 0 0 0
396 33 3 0.0403668 -2.94309 22.1763 -0.384815 0 0 0
397 34 1 -0.0639002 -1.76595 22.4201 5.14846 0 0 0
398 34 2 -0.1737 -1.96601 23.696 4.44456 0 0 0
399 34 2 -0.1737 -3.10937 24.0971 4.02899 0 0 0
400 34 1 -0.0639002 -4.30366 23.3285 4.2172 0 0 0
401 34 3 0.0403668 -1.48371 21.7941 4.29692 0 0 0
402 34 3 0.0403668 -2.6158 22.1247 5.77072 0 0 0
403 34 3 0.0403668 -0.790563 22.4347 5.64349 0 0 0
404 34 4 0.1165 -1.07269 24.2713 4.22295 0 0 0
405 34 4 0.1165 -3.32576 25.1326 3.78608 0 0 0
406 34 3 0.0403668 -4.56006 23.3606 5.2802 0 0 0
407 34 3 0.0403668 -5.15564 23.682 3.62912 0 0 0
408 34 3 0.0403668 -4.07387 22.3099 3.89108 0 0 0
409 35 1 -0.0639002 -1.94814 24.7707 8.32644 0 0 0
410 35 2 -0.1737 -2.90736 25.6516 9.01915 0 0 0
411 35 2 -0.1737 -4.06553 25.2089 9.41016 0 0 0
412 35 1 -0.0639002 -4.6202 23.9447 8.79693 0 0 0
413 35 3 0.0403668 -2.21561 24.8124 7.2665 0 0 0
414 35 3 0.0403668 -2.09422 23.7177 8.5845 0 0 0
415 35 3 0.0403668 -0.929916 25.1428 8.47267 0 0 0
416 35 4 0.1165 -2.54067 26.5596 9.48717 0 0 0
417 35 4 0.1165 -4.59557 25.8771 10.0814 0 0 0
418 35 3 0.0403668 -4.28256 23.6541 7.79778 0 0 0
419 35 3 0.0403668 -4.39112 23.0513 9.38518 0 0 0
420 35 3 0.0403668 -5.69083 23.9115 8.575 0 0 0
421 36 1 -0.0639002 -0.815896 24.666 12.6776 0 0 0
422 36 2 -0.1737 -2.16437 24.5505 12.1886 0 0 0
423 36 2 -0.1737 -3.30547 24.5443 12.8984 0 0 0
424 36 1 -0.0639002 -3.72126 25.3059 14.1068 0 0 0
425 36 3 0.0403668 -0.813054 24.0712 13.5957 0 0 0
426 36 3 0.0403668 -0.690896 25.7062 12.9925 0 0 0
427 36 3 0.0403668 -0.137526 24.1661 11.98 0 0 0
428 36 4 0.1165 -2.1432 23.9771 11.2673 0 0 0
429 36 4 0.1165 -4.13955 24.2025 12.2938 0 0 0
430 36 3 0.0403668 -4.60302 25.9487 14.0295 0 0 0
431 36 3 0.0403668 -3.97779 24.6603 14.9519 0 0 0
432 36 3 0.0403668 -2.79465 25.8063 14.4029 0 0 0
433 37 1 -0.0639002 -3.55402 23.3913 18.2057 0 0 0
434 37 2 -0.1737 -4.5085 24.4496 18.2082 0 0 0
435 37 2 -0.1737 -4.95459 25.2051 19.174 0 0 0
436 37 1 -0.0639002 -4.32226 25.345 20.4254 0 0 0
437 37 3 0.0403668 -2.59702 23.5839 17.712 0 0 0
438 37 3 0.0403668 -4.07811 22.7046 17.5345 0 0 0
439 37 3 0.0403668 -3.49103 22.867 19.1637 0 0 0
440 37 4 0.1165 -5.0571 24.4708 17.2719 0 0 0
441 37 4 0.1165 -5.98908 25.5334 19.1678 0 0 0
442 37 3 0.0403668 -4.63038 24.4718 21.0079 0 0 0
443 37 3 0.0403668 -3.24619 25.4818 20.284 0 0 0
444 37 3 0.0403668 -4.73664 26.238 20.9024 0 0 0
445 38 1 -0.0639002 -0.937799 23.2823 23.5457 0 0 0
446 38 2 -0.1737 -1.44086 24.651 23.2725 0 0 0
447 38 2 -0.1737 -2.65604 25.2118 23.7728 0 0 0
448 38 1 -0.0639002 -3.69492 24.5101 24.6224 0 0 0
449 38 3 0.0403668 0.0135819 23.233 23.008 0 0 0
450 38 3 0.0403668 -1.6071 22.4803 23.2209 0 0 0
451 38 3 0.0403668 -0.709231 23.0026 24.5783 0 0 0
452 38 4 0.1165 -0.837621 25.2565 22.6036 0 0 0
453 38 4 0.1165 -2.81693 26.2622 23.5517 0 0 0
454 38 3 0.0403668 -3.22151 23.6565 25.1162 0 0 0
455 38 3 0.0403668 -4.11214 25.282 25.2758 0 0 0
456 38 3 0.0403668 -4.59575 24.1087 24.1491 0 0 0
457 39 1 -0.0639002 -2.76374 27.9141 0.0771702 0 0 0
458 39 2 -0.1737 -3.13625 29.4316 0.251256 0 0 0
459 39 2 -0.1737 -4.47136 29.8234 0.465122 0 0 0
460 39 1 -0.0639002 -5.7335 28.892 0.566905 0 0 0
461 39 3 0.0403668 -3.50939 27.226 0.486056 0 0 0
462 39 3 0.0403668 -1.83207 27.6939 0.606478 0 0 0
463 39 3 0.0403668 -2.7969 27.5524 -0.954737 0 0 0
464 39 4 0.1165 -2.29352 30.0867 0.0545588 0 0 0
465 39 4 0.1165 -4.73814 30.8424 0.726692 0 0 0
466 39 3 0.0403668 53.5359 29.2378 0.729262 -1 0 0
467 39 3 0.0403668 -5.73929 28.4026 -0.411405 0 0 0
468 39 3 0.0403668 -5.57712 28.0277 1.21897 0 0 0
469 40 1 -0.0639002 -0.978116 28.2175 4.99598 0 0 0
470 40 2 -0.1737 -0.859706 29.5546 4.19279 0 0 0
471 40 2 -0.1737 -1.89911 30.4549 3.96729 0 0 0
472 40 1 -0.0639002 -3.34802 30.0936 3.94532 0 0 0
473 40 3 0.0403668 -0.861122 27.3624 4.32384 0 0 0
474 40 3 0.0403668 -1.89743 28.2695 5.58658 0 0 0
475 40 3 0.0403668 -0.10432 28.1272 5.6479 0 0 0
476 40 4 0.1165 0.155597 29.8753 3.98231 0 0 0
477 40 4 0.1165 -1.63237 31.4686 3.68541 0 0 0
478 40 3 0.0403668 -3.87606 30.0247 4.90091 0 0 0
479 40 3 0.0403668 -4.00592 30.7789 3.403 0 0 0
480 40 3 0.0403668 -3.48176 29.0912 3.52813 0 0 0
481 41 1 -0.0639002 -2.21738 30.0928 9.00367 0 0 0
482 41 2 -0.1737 -3.28573 30.7275 8.06177 0 0 0
483 41 2 -0.1737 -4.68808 30.667 8.20614 0 0 0
484 41 1 -0.0639002 -5.34998 29.8464 9.39834 0 0 0
485 41 3 0.0403668 -2.5982 30.1533 10.0274 0 0 0
486 41 3 0.0403668 -1.22735 30.5569 8.9716 0 0 0
487 41 3 0.0403668 -1.99409 29.0562 8.73479 0 0 0
488 41 4 0.1165 -2.82512 31.0948 7.15018 0 0 0
489 41 4 0.1165 -5.33376 31.0777 7.43642 0 0 0
490 41 3 0.0403668 -5.26008 30.3803 10.3489 0 0 0
491 41 3 0.0403668 -6.36367 29.4475 9.29849 0 0 0
492 41 3 0.0403668 -4.75073 28.9517 9.59076 0 0 0
493 42 1 -0.0639002 -1.38497 28.3136 12.1318 0 0 0
494 42 2 -0.1737 -1.63743 29.5814 12.8675 0 0 0
495 42 2 -0.1737 -2.85772 29.9723 13.0753 0 0 0
496 42 1 -0.0639002 -3.8668 28.9738 12.885 0 0 0
497 42 3 0.0403668 -1.79952 28.235 11.1225 0 0 0
498 42 3 0.0403668 -1.67708 27.4622 12.7535 0 0 0
499 42 3 0.0403668 -0.308531 28.1358 12.0524 0 0 0
500 42 4 0.1165 -0.767416 30.1431 13.1925 0 0 0
501 42 4 0.1165 -3.1095 30.8783 13.6174 0 0 0
502 42 3 0.0403668 -3.81186 27.9897 13.3597 0 0 0
503 42 3 0.0403668 -4.79995 29.3219 13.3375 0 0 0
504 42 3 0.0403668 -3.90071 28.8417 11.7996 0 0 0
505 43 1 -0.0639002 -2.2134 27.9591 16.2659 0 0 0
506 43 2 -0.1737 -1.93565 29.3942 16.4414 0 0 0
507 43 2 -0.1737 -2.85925 30.3933 16.7683 0 0 0
508 43 1 -0.0639002 -4.12593 29.9509 17.1907 0 0 0
509 43 3 0.0403668 -1.28689 27.4195 16.4829 0 0 0
510 43 3 0.0403668 -2.33751 27.7449 15.2003 0 0 0
511 43 3 0.0403668 -2.95284 27.6604 17.0147 0 0 0
512 43 4 0.1165 -0.906845 29.6836 16.252 0 0 0
513 43 4 0.1165 -2.54571 31.4147 16.9595 0 0 0
514 43 3 0.0403668 -4.69706 30.8446 17.4586 0 0 0
515 43 3 0.0403668 -4.5985 29.3037 16.446 0 0 0
516 43 3 0.0403668 -4.04356 29.2249 18.0048 0 0 0
517 44 1 -0.0639002 -0.356559 29.4538 20.5176 0 0 0
518 44 2 -0.1737 -1.36344 30.4661 21.0295 0 0 0
519 44 2 -0.1737 -2.59139 30.185 21.5363 0 0 0
520 44 1 -0.0639002 -3.31744 28.9217 21.1938 0 0 0
521 44 3 0.0403668 -0.698937 28.4419 20.7534 0 0 0
522 44 3 0.0403668 0.595184 29.6078 21.0345 0 0 0
523 44 3 0.0403668 -0.216765 29.6587 19.4522 0 0 0
524 44 4 0.1165 -0.979912 31.475 21.1441 0 0 0
525 44 4 0.1165 -3.14916 30.8941 22.1399 0 0 0
526 44 3 0.0403668 -4.35975 28.8917 21.5244 0 0 0
527 44 3 0.0403668 -3.1119 28.7303 20.1365 0 0 0
528 44 3 0.0403668 -2.81807 28.1556 21.7941 0 0 0
529 45 1 -0.0639002 -1.27162 29.3179 25.0868 0 0 0
530 45 2 -0.1737 -2.5038 30.3329 25.311 0 0 0
531 45 2 -0.1737 -3.92811 30.0188 25.2246 0 0 0
532 45 1 -0.0639002 -4.48631 28.6193 24.86 0 0 0
533 45 3 0.0403668 -1.68206 28.3559 25.4072 0 0 0
534 45 3 0.0403668 -0.362578 29.5526 25.6482 0 0 0
535 45 3 0.0403668 -0.990117 29.1148 24.0493 0 0 0
536 45 4 0.1165 -2.15798 31.3553 25.426 0 0 0
537 45 4 0.1165 -4.68551 30.7901 25.3222 0 0 0
538 45 3 0.0403668 -5.31269 28.7751 24.1604 0 0 0
539 45 3 0.0403668 -3.74221 27.9999 24.3508 0 0 0
540 45 3 0.0403668 -4.66709 28.0428 25.772 0 0 0
541 46 1 -0.0639002 -1.29024 32.9827 -1.13659 0 0 0
542 46 2 -0.1737 -1.18284 33.6965 0.169581 0 0 0
543 46 2 -0.1737 -2.16559 34.4908 0.704307 0 0 0
544 46 1 -0.0639002 -3.54288 34.4024 0.381934 0 0 0
545 46 3 0.0403668 -0.538069 33.4507 27.6079 0 0 -1
546 46 3 0.0403668 -2.24231 33.0986 27.7236 0 0 -1
547 46 3 0.0403668 -0.975626 31.9353 28.2702 0 0 -1
548 46 4 0.1165 -0.152093 33.9147 0.430291 0 0 0
549 46 4 0.1165 -1.93432 35.0721 1.59129 0 0 0
550 46 3 0.0403668 -3.81617 33.6769 -0.389854 0 0 0
551 46 3 0.0403668 -4.02764 34.2335 1.34797 0 0 0
552 46 3 0.0403668 -3.88686 35.417 0.160818 0 0 0
553 47 1 -0.0639002 -1.03034 33.708 4.79705 0 0 0
554 47 2 -0.1737 -2.58376 33.9771 4.57218 0 0 0
555 47 2 -0.1737 -3.45753 34.6593 5.3168 0 0 0
556 47 1 -0.0639002 -3.2532 34.8755 6.87046 0 0 0
557 47 3 0.0403668 -0.848689 32.9765 5.5899 0 0 0
558 47 3 0.0403668 -0.517505 34.5888 5.19431 0 0 0
559 47 3 0.0403668 -0.542035 33.4437 3.85449 0 0 0
560 47 4 0.1165 -2.92533 33.5734 3.62433 0 0 0
561 47 4 0.1165 -4.51741 34.6384 5.08393 0 0 0
562 47 3 0.0403668 -4.01976 34.2959 7.39295 0 0 0
563 47 3 0.0403668 -2.32721 34.3467 7.11448 0 0 0
564 47 3 0.0403668 -3.23432 35.8691 7.32779 0 0 0
565 48 1 -0.0639002 -2.19735 33.3648 10.5406 0 0 0
566 48 2 -0.1737 -3.11399 33.4365 11.7679 0 0 0
567 48 2 -0.1737 -3.32174 34.4959 12.5376 0 0 0
568 48 1 -0.0639002 -3.01987 35.8283 12.1036 0 0 0
569 48 3 0.0403668 -2.86344 33.6894 9.73588 0 0 0
570 48 3 0.0403668 -1.84707 32.3317 10.4589 0 0 0
571 48 3 0.0403668 -1.43076 34.101 10.7993 0 0 0
572 48 4 0.1165 -3.38425 32.417 12.0243 0 0 0
573 48 4 0.1165 -3.76796 34.3228 13.5117 0 0 0
574 48 3 0.0403668 -2.94563 35.9149 11.0156 0 0 0
575 48 3 0.0403668 -3.91615 36.423 12.3029 0 0 0
576 48 3 0.0403668 -2.14337 36.1209 12.6891 0 0 0
577 49 1 -0.0639002 -1.24719 34.1448 17.5134 0 0 0
578 49 2 -0.1737 -2.558 34.7913 17.2278 0 0 0
579 49 2 -0.1737 -3.55639 35.073 17.9806 0 0 0
580 49 1 -0.0639002 -3.55765 35.1944 19.3636 0 0 0
581 49 3 0.0403668 -1.28031 33.1797 18.0273 0 0 0
582 49 3 0.0403668 -0.57256 34.8048 18.0665 0 0 0
583 49 3 0.0403668 -0.810345 34.1489 16.5104 0 0 0
584 49 4 0.1165 -2.82052 34.8365 16.1756 0 0 0
585 49 4 0.1165 -4.39795 35.4928 17.4387 0 0 0
586 49 3 0.0403668 -3.01831 34.3739 19.8459 0 0 0
587 49 3 0.0403668 -3.15606 36.1486 19.7169 0 0 0
588 49 3 0.0403668 -4.60979 35.0927 19.6452 0 0 0
589 50 1 -0.0639002 -3.72474 35.0894 23.052 0 0 0
590 50 2 -0.1737 -2.96854 35.3558 24.279 0 0 0
591 50 2 -0.1737 -3.43699 35.5991 25.5464 0 0 0
592 50 1 -0.0639002 -4.93121 35.8385 25.9219 0 0 0
593 50 3 0.0403668 -3.54915 35.8094 22.2474 0 0 0
594 50 3 0.0403668 -4.80991 35.1404 23.1803 0 0 0
595 50 3 0.0403668 -3.4375 34.1671 22.5387 0 0 0
596 50 4 0.1165 -1.91218 35.599 24.2244 0 0 0
597 50 4 0.1165 -2.7281 35.645 26.3671 0 0 0
598 50 3 0.0403668 -4.85919 36.8413 26.3532 0 0 0
599 50 3 0.0403668 -5.57069 35.9156 25.0377 0 0 0
600 50 3 0.0403668 -5.40207 35.0896 26.5654 0 0 0
601 51 1 -0.0639002 5.38918 -2.45739 -0.826388 0 0 0
602 51 2 -0.1737 6.14226 -1.21622 27.9685 0 0 -1
603 51 2 -0.1737 5.50922 0.00408485 27.8709 0 0 -1
604 51 1 -0.0639002 4.13047 0.327235 -0.752121 0 0 0