ITEM: TIMESTEP
400
ITEM: NUMBER OF ATOMS
4800
ITEM: BOX BOUNDS xy xz yz pp pp pp
-6.6691393659021081e+00 5.3593502565902867e+01 0.0000000000000000e+00
-3.5772540961934780e+00 3.7111866096193431e+01 0.0000000000000000e+00
-1.2533373634018936e+00 2.8227652083401843e+01 0.0000000000000000e+00
ITEM: ATOMS id mol type q x y z ix iy iz
1 1 1 -0.0639002 -1.15209 -1.03564 28.1114 0 0 -1
2 1 2 -0.1737 -2.42217 -0.193874 -1.13486 0 0 0
3 1 2 -0.1737 -3.74008 -0.605597 -0.894084 0 0 0
4 1 1 -0.0639002 -4.96691 0.186736 28.2242 0 0 -1
5 1 3 0.0403668 -0.553475 -1.20429 -0.469649 0 0 0
6 1 3 0.0403668 -0.666714 -0.577291 27.2448 0 0 -1
7 1 3 0.0403668 -1.56263 -2.00199 27.8044 0 0 -1
8 1 4 0.1165 -2.43197 0.83232 -1.48817 0 0 0
9 1 4 0.1165 -3.95802 -1.54287 -0.392054 0 0 0
10 1 3 0.0403668 -4.76909 1.25058 -1.0965 0 0 0
11 1 3 0.0403668 -5.12114 -0.146637 27.1937 0 0 -1
12 1 3 0.0403668 -5.79728 -0.171736 -0.641548 0 0 0
13 2 1 -0.0639002 -2.83795 -2.58938 4.29511 0 0 0
14 2 2 -0.1737 -2.21342 -1.28885 4.55506 0 0 0
15 2 2 -0.1737 -2.5607 -0.242479 3.68844 0 0 0
16 2 1 -0.0639002 -3.21586 -0.57454 2.3151 0 0 0
17 2 3 0.0403668 -2.51805 -2.93802 3.30881 0 0 0
18 2 3 0.0403668 -3.91909 -2.42737 4.33326 0 0 0
19 2 3 0.0403668 -2.55259 -3.34061 5.03733 0 0 0
20 2 4 0.1165 -1.62029 -1.13072 5.45017 0 0 0
21 2 4 0.1165 -2.39425 0.797846 3.94926 0 0 0
22 2 3 0.0403668 -2.49145 -0.16908 1.60274 0 0 0
23 2 3 0.0403668 -3.57155 -1.58203 2.08041 0 0 0
24 2 3 0.0403668 -4.15187 -0.0528465 2.09527 0 0 0
25 3 1 -0.0639002 -2.66252 -2.0185 9.29448 0 0 0
26 3 2 -0.1737 -3.01961 -0.542464 8.92333 0 0 0
27 3 2 -0.1737 -4.10053 -0.238763 8.16635 0 0 0
28 3 1 -0.0639002 -5.28696 -1.23177 7.78134 0 0 0
29 3 3 0.0403668 -2.01678 -2.45177 8.52511 0 0 0
30 3 3 0.0403668 -3.5868 -2.60074 9.23708 0 0 0
31 3 3 0.0403668 -2.30075 -2.20489 10.3099 0 0 0
32 3 4 0.1165 -2.2769 0.197284 9.20465 0 0 0
33 3 4 0.1165 -4.23602 0.730316 7.69673 0 0 0
34 3 3 0.0403668 -6.10378 -1.14316 8.50355 0 0 0
35 3 3 0.0403668 -5.69305 -1.17314 6.76728 0 0 0
36 3 3 0.0403668 -5.08432 -2.30283 7.87288 0 0 0
37 4 1 -0.0639002 -0.847875 -0.205473 13.2695 0 0 0
38 4 2 -0.1737 -2.08808 -1.07256 13.3408 0 0 0
39 4 2 -0.1737 -3.27203 -0.58841 13.8329 0 0 0
40 4 1 -0.0639002 -3.669 0.929492 13.9177 0 0 0
41 4 3 0.0403668 -0.42112 -0.221118 12.2624 0 0 0
42 4 3 0.0403668 -0.0904583 -0.41597 14.0302 0 0 0
43 4 3 0.0403668 -0.9726 0.879365 13.3342 0 0 0
44 4 4 0.1165 -1.97047 -2.13668 13.1624 0 0 0
45 4 4 0.1165 -4.05419 -1.30606 14.0591 0 0 0
46 4 3 0.0403668 -4.66541 1.09568 13.498 0 0 0
47 4 3 0.0403668 -3.77491 1.14166 14.9856 0 0 0
48 4 3 0.0403668 -3.00454 1.6902 13.4976 0 0 0
49 5 1 -0.0639002 -0.621505 -1.76171 17.8107 0 0 0
50 5 2 -0.1737 -1.86571 -1.03487 17.9541 0 0 0
51 5 2 -0.1737 -3.18419 -1.53756 18.0065 0 0 0
52 5 1 -0.0639002 -4.48378 -0.746 18.2602 0 0 0
53 5 3 0.0403668 0.0710369 -1.32011 18.5332 0 0 0
54 5 3 0.0403668 -0.200203 -1.60788 16.8129 0 0 0
55 5 3 0.0403668 -0.906786 -2.79586 18.0246 0 0 0
56 5 4 0.1165 -1.80142 0.0198844 18.2018 0 0 0
57 5 4 0.1165 -3.4144 -2.5408 17.6623 0 0 0
58 5 3 0.0403668 -5.38539 -1.00028 17.6953 0 0 0
59 5 3 0.0403668 -4.64316 -0.695207 19.3412 0 0 0
60 5 3 0.0403668 -4.21651 0.225728 17.8348 0 0 0
61 6 1 -0.0639002 -1.00095 -2.15967 23.0661 0 0 0
62 6 2 -0.1737 -1.8895 -1.71773 21.7993 0 0 0
63 6 2 -0.1737 -3.28708 -1.45517 21.9365 0 0 0
64 6 1 -0.0639002 -4.09601 -1.50604 23.2784 0 0 0
65 6 3 0.0403668 -1.12367 -1.38403 23.8276 0 0 0
66 6 3 0.0403668 0.0614444 -2.342 22.8799 0 0 0
67 6 3 0.0403668 -1.34659 -3.08233 23.5413 0 0 0
68 6 4 0.1165 -1.48357 -1.38137 20.8505 0 0 0
69 6 4 0.1165 -3.69017 -1.06879 21.0058 0 0 0
70 6 3 0.0403668 -3.99845 -2.41736 23.8756 0 0 0
71 6 3 0.0403668 -3.77517 -0.584947 23.7737 0 0 0
72 6 3 0.0403668 -5.15167 -1.362 23.0306 0 0 0
73 7 1 -0.0639002 -0.943037 3.19506 2.04083 0 0 0
74 7 2 -0.1737 -1.62384 3.74476 0.742423 0 0 0
75 7 2 -0.1737 -3.01267 4.04358 0.606347 0 0 0
76 7 1 -0.0639002 -3.98419 3.89686 1.88621 0 0 0
77 7 3 0.0403668 -0.24895 2.35088 1.99402 0 0 0
78 7 3 0.0403668 -1.83748 2.95259 2.62202 0 0 0
79 7 3 0.0403668 -0.36982 4.0304 2.45345 0 0 0
80 7 4 0.1165 -0.919496 3.79986 -0.0815217 0 0 0
81 7 4 0.1165 -3.3345 4.61708 -0.257114 0 0 0
82 7 3 0.0403668 -4.28509 2.84593 1.8459 0 0 0
83 7 3 0.0403668 -3.51698 4.07011 2.86006 0 0 0
84 7 3 0.0403668 -4.79781 4.62562 1.82695 0 0 0
85 8 1 -0.0639002 -1.07563 4.04858 5.54316 0 0 0
86 8 2 -0.1737 -2.22551 5.04198 4.96136 0 0 0
87 8 2 -0.1737 -3.57541 5.16433 5.40578 0 0 0
88 8 1 -0.0639002 -4.20809 4.50869 6.72049 0 0 0
89 8 3 0.0403668 -0.16859 4.61475 5.77409 0 0 0
90 8 3 0.0403668 -0.828774 3.26071 4.82555 0 0 0
91 8 3 0.0403668 -1.43557 3.46492 6.39547 0 0 0
92 8 4 0.1165 -1.92254 5.6656 4.12628 0 0 0
93 8 4 0.1165 -4.26717 5.845 4.91985 0 0 0
94 8 3 0.0403668 -3.35441 4.01798 7.19697 0 0 0
95 8 3 0.0403668 -4.73204 5.19713 7.38994 0 0 0
96 8 3 0.0403668 -4.99914 3.79199 6.48139 0 0 0
97 9 1 -0.0639002 -1.4021 3.51938 10.4168 0 0 0
98 9 2 -0.1737 -2.76004 2.9902 10.5724 0 0 0
99 9 2 -0.1737 -3.9022 3.73987 10.4309 0 0 0
100 9 1 -0.0639002 -5.15074 3.23062 11.0294 0 0 0
101 9 3 0.0403668 -1.05829 3.08572 9.4732 0 0 0
102 9 3 0.0403668 -0.717867 3.38282 11.2593 0 0 0
103 9 3 0.0403668 -1.61296 4.58437 10.2829 0 0 0
104 9 4 0.1165 -2.80504 1.91503 10.7138 0 0 0
105 9 4 0.1165 -3.91857 4.78034 10.1224 0 0 0
106 9 3 0.0403668 -5.93773 3.40836 10.2907 0 0 0
107 9 3 0.0403668 -4.99195 2.24775 11.4825 0 0 0
108 9 3 0.0403668 -5.27027 3.95056 11.8443 0 0 0
109 10 1 -0.0639002 -0.979468 3.52459 15.6426 0 0 0
110 10 2 -0.1737 -2.06901 3.94443 16.4629 0 0 0
111 10 2 -0.1737 -3.38471 3.73603 16.2174 0 0 0
112 10 1 -0.0639002 -4.51561 4.33441 17.0251 0 0 0
113 10 3 0.0403668 -0.387621 4.30685 15.1585 0 0 0
114 10 3 0.0403668 -1.21191 2.67191 14.998 0 0 0
115 10 3 0.0403668 -0.391099 3.06672 16.4431 0 0 0
116 10 4 0.1165 -1.86367 4.7533 17.1568 0 0 0
117 10 4 0.1165 -3.54848 3.22393 15.2745 0 0 0
118 10 3 0.0403668 -4.06987 4.61589 17.9837 0 0 0
119 10 3 0.0403668 -4.89561 5.11516 16.3598 0 0 0
120 10 3 0.0403668 -5.3151 3.7216 17.4516 0 0 0
121 11 1 -0.0639002 -2.95073 2.33432 20.7918 0 0 0
122 11 2 -0.1737 -2.76854 3.70997 21.5289 0 0 0
123 11 2 -0.1737 -3.7944 4.73182 21.5442 0 0 0
124 11 1 -0.0639002 -5.15107 4.63655 20.7777 0 0 0
125 11 3 0.0403668 -4.03274 2.17363 20.7884 0 0 0
126 11 3 0.0403668 -2.49743 1.51681 21.36 0 0 0
127 11 3 0.0403668 -2.55956 2.37891 19.7712 0 0 0
128 11 4 0.1165 -1.84308 3.81348 22.0864 0 0 0
129 11 4 0.1165 -3.50213 5.72744 21.8625 0 0 0
130 11 3 0.0403668 -5.20617 5.42891 20.0255 0 0 0
131 11 3 0.0403668 -5.18191 3.67586 20.2554 0 0 0
132 11 3 0.0403668 -6.09582 4.71 21.3242 0 0 0
133 12 1 -0.0639002 -1.59769 2.67066 25.9879 0 0 0
134 12 2 -0.1737 -2.05378 3.9236 25.3141 0 0 0
135 12 2 -0.1737 -3.42783 4.13216 25.1823 0 0 0
136 12 1 -0.0639002 -4.32855 2.84724 25.4357 0 0 0
137 12 3 0.0403668 -2.2175 1.79126 25.7902 0 0 0
138 12 3 0.0403668 -1.61249 2.71544 27.0809 0 0 0
139 12 3 0.0403668 -0.574717 2.34438 25.7791 0 0 0
140 12 4 0.1165 -1.31412 4.6761 25.0599 0 0 0
141 12 4 0.1165 -3.87892 5.0339 24.7806 0 0 0
142 12 3 0.0403668 -4.08636 2.06004 24.7158 0 0 0
143 12 3 0.0403668 -4.26707 2.55454 26.4879 0 0 0
144 12 3 0.0403668 -5.35185 3.20875 25.2988 0 0 0
145 13 1 -0.0639002 -1.67944 8.78405 3.40133 0 0 0
146 13 2 -0.1737 -2.81408 8.2889 2.74336 0 0 0
147 13 2 -0.1737 -4.11098 8.56995 3.04429 0 0 0
148 13 1 -0.0639002 -4.60216 9.27219 4.19832 0 0 0
149 13 3 0.0403668 -1.7954 9.60444 4.11559 0 0 0
150 13 3 0.0403668 -1.0913 9.18971 2.57296 0 0 0
151 13 3 0.0403668 -1.17753 7.90952 3.82546 0 0 0
152 13 4 0.1165 -2.61719 7.63999 1.8959 0 0 0
153 13 4 0.1165 -4.89216 8.12381 2.43706 0 0 0
154 13 3 0.0403668 -5.40349 8.74877 4.72795 0 0 0
155 13 3 0.0403668 -3.74513 9.34 4.87472 0 0 0
156 13 3 0.0403668 -4.98789 10.2596 3.92855 0 0 0
157 14 1 -0.0639002 -2.20848 8.10942 7.96135 0 0 0
158 14 2 -0.1737 -3.25167 7.68339 8.90116 0 0 0
159 14 2 -0.1737 -4.50182 8.14093 8.98597 0 0 0
160 14 1 -0.0639002 -4.99543 9.35848 8.29122 0 0 0
161 14 3 0.0403668 -1.53796 8.88174 8.34933 0 0 0
162 14 3 0.0403668 -2.63186 8.55914 7.05849 0 0 0
163 14 3 0.0403668 -1.57985 7.25905 7.68151 0 0 0
164 14 4 0.1165 -3.03443 6.95019 9.6714 0 0 0
165 14 4 0.1165 -5.07745 7.98724 9.8932 0 0 0
166 14 3 0.0403668 -6.08668 9.40432 8.35164 0 0 0
167 14 3 0.0403668 -4.57781 10.2599 8.74917 0 0 0
168 14 3 0.0403668 -4.67738 9.46019 7.2495 0 0 0
169 15 1 -0.0639002 -2.35029 7.47842 13.7956 0 0 0
170 15 2 -0.1737 -3.20464 8.32991 12.8731 0 0 0
171 15 2 -0.1737 -4.55831 8.19891 12.6679 0 0 0
172 15 1 -0.0639002 -5.40334 7.20966 13.3896 0 0 0
173 15 3 0.0403668 -2.65075 7.65685 14.8322 0 0 0
174 15 3 0.0403668 -1.29981 7.66433 13.5538 0 0 0
175 15 3 0.0403668 -2.48316 6.39513 13.7218 0 0 0
176 15 4 0.1165 -2.60019 8.875 12.155 0 0 0
177 15 4 0.1165 -5.0785 8.88138 12.0034 0 0 0
178 15 3 0.0403668 -4.82671 6.61444 14.1036 0 0 0
179 15 3 0.0403668 -6.19968 7.82694 13.8155 0 0 0
180 15 3 0.0403668 -5.96434 6.56932 12.7026 0 0 0
181 16 1 -0.0639002 -2.48159 7.1461 19.2178 0 0 0
182 16 2 -0.1737 -1.77285 7.84265 18.161 0 0 0
183 16 2 -0.1737 -2.39166 8.61194 17.1909 0 0 0
184 16 1 -0.0639002 -3.88697 8.68519 17.1204 0 0 0
185 16 3 0.0403668 -2.52853 6.09969 18.9024 0 0 0
186 16 3 0.0403668 -3.51426 7.4878 19.3335 0 0 0
187 16 3 0.0403668 -1.99118 7.2974 20.1838 0 0 0
188 16 4 0.1165 -0.72058 7.6194 18.0166 0 0 0
189 16 4 0.1165 -1.77335 8.98482 16.3805 0 0 0
190 16 3 0.0403668 -4.27436 7.66631 17.2122 0 0 0
191 16 3 0.0403668 -4.29122 9.32342 17.9115 0 0 0
192 16 3 0.0403668 -4.18598 9.15246 16.1776 0 0 0
193 17 1 -0.0639002 -1.57267 7.7639 23.9457 0 0 0
194 17 2 -0.1737 -2.20275 8.98685 24.0945 0 0 0
195 17 2 -0.1737 -3.05865 9.61811 23.259 0 0 0
196 17 1 -0.0639002 -3.63729 9.03997 21.9628 0 0 0
197 17 3 0.0403668 -2.30207 6.953 23.8621 0 0 0
198 17 3 0.0403668 -0.827757 7.42365 24.6709 0 0 0
199 17 3 0.0403668 -1.20083 7.86822 22.9222 0 0 0
200 17 4 0.1165 -2.06612 9.42302 25.0789 0 0 0
201 17 4 0.1165 -3.48797 10.5383 23.6423 0 0 0
202 17 3 0.0403668 -4.56523 9.61136 21.8678 0 0 0
203 17 3 0.0403668 -3.18436 9.4041 21.036 0 0 0
204 17 3 0.0403668 -3.66599 7.94655 21.9483 0 0 0
205 18 1 -0.0639002 -1.08153 7.65803 -0.811545 0 0 1
206 18 2 -0.1737 -1.80866 9.01313 -0.829915 0 0 1
207 18 2 -0.1737 -3.1162 9.19305 27.9805 0 0 0
208 18 1 -0.0639002 -4.16972 8.05777 27.3921 0 0 0
209 18 3 0.0403668 -1.43016 6.93573 -0.0676413 0 0 1
210 18 3 0.0403668 -0.040941 7.97799 -0.704923 0 0 1
211 18 3 0.0403668 -1.12686 7.13302 27.7108 0 0 0
212 18 4 0.1165 -1.21523 9.80899 -0.391239 0 0 1
213 18 4 0.1165 -3.43935 10.224 28.0842 0 0 0
214 18 3 0.0403668 -5.15983 8.01814 27.8555 0 0 0
215 18 3 0.0403668 -4.42914 8.25351 26.3476 0 0 0
216 18 3 0.0403668 -3.70337 7.08039 27.5466 0 0 0
217 19 1 -0.0639002 -3.74647 13.1442 -0.117091 0 0 0
218 19 2 -0.1737 -3.67678 14.5749 -0.343565 0 0 0
219 19 2 -0.1737 -4.85618 15.2557 -0.323136 0 0 0
220 19 1 -0.0639002 -6.19967 14.5957 -0.0581689 0 0 0
221 19 3 0.0403668 -3.95409 12.9983 0.947011 0 0 0
222 19 3 0.0403668 -2.80725 12.6032 -0.264695 0 0 0
223 19 3 0.0403668 -4.45973 12.7115 -0.824686 0 0 0
224 19 4 0.1165 -2.83122 15.0951 -0.782103 0 0 0
225 19 4 0.1165 -4.74184 16.3043 -0.578652 0 0 0
226 19 3 0.0403668 -5.97285 13.5289 0.0253986 0 0 0
227 19 3 0.0403668 53.508 14.9187 0.827462 -1 0 0
228 19 3 0.0403668 53.4477 14.6861 -0.958118 -1 0 0
229 20 1 -0.0639002 -2.90071 12.2744 3.73957 0 0 0
230 20 2 -0.1737 -1.9632 13.4482 4.00023 0 0 0
231 20 2 -0.1737 -2.20601 14.8289 3.85747 0 0 0
232 20 1 -0.0639002 -3.56161 15.4547 3.2391 0 0 0
233 20 3 0.0403668 -3.05515 12.1397 2.66499 0 0 0
234 20 3 0.0403668 -3.94268 12.5501 3.9263 0 0 0
235 20 3 0.0403668 -2.61879 11.3833 4.30802 0 0 0
236 20 4 0.1165 -1.03158 12.9687 4.28322 0 0 0
237 20 4 0.1165 -1.49456 15.5494 4.24813 0 0 0
238 20 3 0.0403668 -3.31471 16.1015 2.39213 0 0 0
239 20 3 0.0403668 -4.32292 14.7497 2.8928 0 0 0
240 20 3 0.0403668 -4.00416 16.1124 3.99289 0 0 0
241 21 1 -0.0639002 -2.50519 13.8051 7.54771 0 0 0
242 21 2 -0.1737 -3.64909 14.7073 7.11116 0 0 0
243 21 2 -0.1737 -4.87732 14.1867 6.78134 0 0 0
244 21 1 -0.0639002 -5.26265 12.7522 7.08557 0 0 0
245 21 3 0.0403668 -1.609 14.2727 7.96573 0 0 0
246 21 3 0.0403668 -2.01397 13.2947 6.71416 0 0 0
247 21 3 0.0403668 -2.88131 13.074 8.26925 0 0 0
248 21 4 0.1165 -3.49286 15.7739 6.98455 0 0 0
249 21 4 0.1165 -5.67516 14.814 6.39674 0 0 0
250 21 3 0.0403668 -5.87548 12.8064 7.9901 0 0 0
251 21 3 0.0403668 -5.84255 12.2654 6.29601 0 0 0
252 21 3 0.0403668 -4.4416 12.0309 7.13319 0 0 0
253 22 1 -0.0639002 -1.86865 12.5222 11.254 0 0 0
254 22 2 -0.1737 -1.69376 14.0328 11.0263 0 0 0
255 22 2 -0.1737 -2.80302 14.9345 10.7595 0 0 0
256 22 1 -0.0639002 -4.30684 14.5096 10.9039 0 0 0
257 22 3 0.0403668 -2.25204 12.0358 10.3523 0 0 0
258 22 3 0.0403668 -2.54055 12.3211 12.0935 0 0 0
259 22 3 0.0403668 -0.962177 11.9245 11.387 0 0 0
260 22 4 0.1165 -0.660392 14.3639 11.0039 0 0 0
261 22 4 0.1165 -2.71613 15.9966 10.5539 0 0 0
262 22 3 0.0403668 -4.84223 15.0131 11.7142 0 0 0
263 22 3 0.0403668 -4.94335 14.755 10.0488 0 0 0
264 22 3 0.0403668 -4.62534 13.4832 11.1081 0 0 0
265 23 1 -0.0639002 -4.8865 12.7598 14.3223 0 0 0
266 23 2 -0.1737 -4.09081 13.9613 14.8101 0 0 0
267 23 2 -0.1737 -4.47971 15.3045 15.0111 0 0 0
268 23 1 -0.0639002 -5.86456 15.9215 14.4945 0 0 0
269 23 3 0.0403668 -4.53101 11.8343 14.7846 0 0 0
270 23 3 0.0403668 -4.58626 12.6655 13.2746 0 0 0
271 23 3 0.0403668 -5.96809 12.9233 14.3227 0 0 0
272 23 4 0.1165 -3.13696 13.6069 15.1876 0 0 0
273 23 4 0.1165 -3.81472 16.0282 15.4716 0 0 0
274 23 3 0.0403668 -6.34656 16.3759 15.3651 0 0 0
275 23 3 0.0403668 -5.60857 16.6387 13.7092 0 0 0
276 23 3 0.0403668 -6.47906 15.0667 14.1974 0 0 0
277 24 1 -0.0639002 -0.382791 12.3782 17.8565 0 0 0
278 24 2 -0.1737 -0.996798 13.7716 17.7989 0 0 0
279 24 2 -0.1737 -2.2553 14.171 18.1139 0 0 0
280 24 1 -0.0639002 -3.34421 13.1709 18.3983 0 0 0
281 24 3 0.0403668 0.710347 12.3391 17.8655 0 0 0
282 24 3 0.0403668 -0.81432 11.8344 17.0111 0 0 0
283 24 3 0.0403668 -0.71996 11.8871 18.774 0 0 0
284 24 4 0.1165 -0.221143 14.4539 17.4661 0 0 0
285 24 4 0.1165 -2.51802 15.2233 18.1543 0 0 0
286 24 3 0.0403668 -4.2769 13.7184 18.2344 0 0 0
287 24 3 0.0403668 -3.44379 12.237 17.8376 0 0 0
288 24 3 0.0403668 -3.43267 12.9336 19.4625 0 0 0
289 25 1 -0.0639002 -1.96797 14.4673 22.0913 0 0 0
290 25 2 -0.1737 -2.78751 15.7195 21.7203 0 0 0
291 25 2 -0.1737 -4.18479 15.5471 21.3626 0 0 0
292 25 1 -0.0639002 -5.03066 14.2654 21.7072 0 0 0
293 25 3 0.0403668 -2.49674 13.6253 21.635 0 0 0
294 25 3 0.0403668 -1.87686 14.318 23.1711 0 0 0
295 25 3 0.0403668 -0.929469 14.4261 21.7501 0 0 0
296 25 4 0.1165 -2.31732 16.6976 21.7044 0 0 0
297 25 4 0.1165 -4.56212 16.3676 20.7606 0 0 0
298 25 3 0.0403668 -5.1039 13.6105 20.834 0 0 0
299 25 3 0.0403668 -4.48284 13.7315 22.4891 0 0 0
300 25 3 0.0403668 -6.03118 14.584 22.0138 0 0 0
301 26 1 -0.0639002 -0.494484 12.0233 25.5762 0 0 0
302 26 2 -0.1737 -0.694581 13.3299 26.2192 0 0 0
303 26 2 -0.1737 -1.83479 14.0332 26.3091 0 0 0
304 26 1 -0.0639002 -3.24553 13.4465 25.9487 0 0 0
305 26 3 0.0403668 0.5242 11.9816 25.1798 0 0 0
306 26 3 0.0403668 -1.224 11.8751 24.7746 0 0 0
307 26 3 0.0403668 -0.732644 11.2144 26.2731 0 0 0
308 26 4 0.1165 0.169069 13.792 26.6866 0 0 0
309 26 4 0.1165 -1.70245 14.9902 26.8039 0 0 0
310 26 3 0.0403668 -3.21288 12.9033 24.9998 0 0 0
311 26 3 0.0403668 -3.61569 12.7649 26.7201 0 0 0
312 26 3 0.0403668 -3.91178 14.2918 25.7531 0 0 0
313 27 1 -0.0639002 -0.937819 18.6807 3.06323 0 0 0
314 27 2 -0.1737 -1.97642 19.3518 2.12058 0 0 0
315 27 2 -0.1737 -3.15948 19.7697 2.42205 0 0 0
316 27 1 -0.0639002 -3.79531 19.7206 3.78938 0 0 0
317 27 3 0.0403668 -0.201172 19.3244 3.55262 0 0 0
318 27 3 0.0403668 -0.608302 17.7668 2.5604 0 0 0
319 27 3 0.0403668 -1.40001 18.1099 3.87397 0 0 0
320 27 4 0.1165 -1.65 19.4687 1.09207 0 0 0
321 27 4 0.1165 -3.65636 20.2836 1.60532 0 0 0
322 27 3 0.0403668 -3.44462 20.5029 4.46886 0 0 0
323 27 3 0.0403668 -4.87545 19.7979 3.63483 0 0 0
324 27 3 0.0403668 -3.68266 18.6799 4.1069 0 0 0
325 28 1 -0.0639002 -1.20774 19.2516 7.58081 0 0 0
326 28 2 -0.1737 -2.22423 18.3442 7.10521 0 0 0
327 28 2 -0.1737 -3.5445 18.5452 7.50148 0 0 0
328 28 1 -0.0639002 -4.22124 19.7186 8.08162 0 0 0
329 28 3 0.0403668 -0.208099 18.8075 7.58938 0 0 0
330 28 3 0.0403668 -1.51095 19.6948 8.53382 0 0 0
331 28 3 0.0403668 -1.23057 20.1269 6.92519 0 0 0
332 28 4 0.1165 -1.90736 17.4003 6.67307 0 0 0
333 28 4 0.1165 -4.29247 17.8066 7.23129 0 0 0
334 28 3 0.0403668 -4.80669 20.1105 7.24477 0 0 0
335 28 3 0.0403668 -4.84347 19.4204 8.93047 0 0 0
336 28 3 0.0403668 -3.47156 20.3969 8.49933 0 0 0
337 29 1 -0.0639002 -1.95826 20.2424 11.8888 0 0 0
338 29 2 -0.1737 -2.39642 20.1782 13.3639 0 0 0
339 29 2 -0.1737 -3.65879 19.8529 13.9719 0 0 0
340 29 1 -0.0639002 -5.03539 19.8187 13.3295 0 0 0
341 29 3 0.0403668 -1.04419 19.6434 11.8404 0 0 0
342 29 3 0.0403668 -1.66797 21.2697 11.6504 0 0 0
343 29 3 0.0403668 -2.6903 19.8695 11.1665 0 0 0
344 29 4 0.1165 -1.53869 20.2615 14.0237 0 0 0
345 29 4 0.1165 -3.76913 19.6515 15.0327 0 0 0
346 29 3 0.0403668 -5.53688 18.8946 13.0278 0 0 0
347 29 3 0.0403668 -5.71592 20.2946 14.0416 0 0 0
348 29 3 0.0403668 -4.98018 20.3236 12.3606 0 0 0
349 30 1 -0.0639002 -1.5741 19.0281 17.6175 0 0 0
350 30 2 -0.1737 -2.7719 19.7445 17.9482 0 0 0
351 30 2 -0.1737 -3.98314 19.1807 18.2027 0 0 0
352 30 1 -0.0639002 -4.37478 17.7968 17.7419 0 0 0
353 30 3 0.0403668 -1.40731 19.0798 16.5376 0 0 0
354 30 3 0.0403668 -1.62462 17.9902 17.9593 0 0 0
355 30 3 0.0403668 -0.870289 19.6782 18.1453 0 0 0
356 30 4 0.1165 -2.50611 20.7343 18.3052 0 0 0
357 30 4 0.1165 -4.79679 19.683 18.7162 0 0 0
358 30 3 0.0403668 -4.69704 17.1439 18.5584 0 0 0
359 30 3 0.0403668 -5.13189 17.9302 16.9637 0 0 0
360 30 3 0.0403668 -3.52152 17.2728 17.3015 0 0 0
361 31 1 -0.0639002 -1.90457 19.3224 22.9528 0 0 0
362 31 2 -0.1737 -2.48374 20.1612 21.8691 0 0 0
363 31 2 -0.1737 -3.71549 20.7318 21.8184 0 0 0
364 31 1 -0.0639002 -4.83028 20.266 22.6131 0 0 0
365 31 3 0.0403668 -2.7509 18.8264 23.4368 0 0 0
366 31 3 0.0403668 -1.51362 20.1003 23.6151 0 0 0
367 31 3 0.0403668 -1.15471 18.6213 22.575 0 0 0
368 31 4 0.1165 -1.69175 20.5952 21.2671 0 0 0
369 31 4 0.1165 -3.95533 21.5479 21.1441 0 0 0
370 31 3 0.0403668 -5.51446 21.102 22.7853 0 0 0
371 31 3 0.0403668 -5.26562 19.404 22.0994 0 0 0
372 31 3 0.0403668 -4.54344 19.9367 23.6161 0 0 0
373 32 1 -0.0639002 -0.492192 18.783 26.9303 0 0 0
374 32 2 -0.1737 -0.54923 20.2883 26.6026 0 0 0
375 32 2 -0.1737 -1.78049 20.9386 26.6779 0 0 0
376 32 1 -0.0639002 -3.11457 20.3138 26.5194 0 0 0
377 32 3 0.0403668 -1.06111 18.5971 27.846 0 0 0
378 32 3 0.0403668 0.540797 18.451 27.0692 0 0 0
379 32 3 0.0403668 -1.10624 18.3199 26.1524 0 0 0
380 32 4 0.1165 0.416806 20.7801 26.5495 0 0 0
381 32 4 0.1165 -1.63396 22.0108 26.594 0 0 0
382 32 3 0.0403668 -4.00351 20.948 26.5836 0 0 0
383 32 3 0.0403668 -3.18051 19.6503 25.6522 0 0 0
384 32 3 0.0403668 -3.36885 19.5887 27.298 0 0 0
385 33 1 -0.0639002 -0.0984028 23.8647 -0.905887 0 0 0
386 33 2 -0.1737 -1.18971 24.47 27.995 0 0 -1
387 33 2 -0.1737 -2.48385 24.163 -1.20384 0 0 0
388 33 1 -0.0639002 -2.92605 23.3699 -0.0673991 0 0 0
389 33 3 0.0403668 0.610046 23.6018 27.7841 0 0 -1
390 33 3 0.0403668 -0.372869 22.9956 -0.301014 0 0 0
391 33 3 0.0403668 0.378898 24.6389 -0.298099 0 0 0
392 33 4 0.1165 -1.05165 25.083 27.11 0 0 -1
393 33 4 0.1165 -3.26674 24.6168 27.6779 0 0 -1
394 33 3 0.0403668 -2.28215 23.6117 0.783222 0 0 0
395 33 3 0.0403668 -3.99082 23.5137 0.137931 0 0 0
396 33 3 0.0403668 -2.84767 22.2855 -0.187965 0 0 0
397 34 1 -0.0639002 -1.66336 22.5264 5.39823 0 0 0
398 34 2 -0.1737 -1.88223 23.7809 4.52116 0 0 0
399 34 2 -0.1737 -3.10037 24.2457 3.91021 0 0 0
400 34 1 -0.0639002 -4.50282 23.505 4.07652 0 0 0
401 34 3 0.0403668 -1.23975 21.7089 4.80749 0 0 0
402 34 3 0.0403668 -2.60859 22.0031 5.5696 0 0 0
403 34 3 0.0403668 -1.25861 22.626 6.40962 0 0 0
404 34 4 0.1165 -0.929066 24.1922 4.20447 0 0 0
405 34 4 0.1165 -3.19829 25.1895 3.38327 0 0 0
406 34 3 0.0403668 -5.27806 24.2657 4.20636 0 0 0
407 34 3 0.0403668 -4.69337 22.8863 3.19472 0 0 0
408 34 3 0.0403668 -4.67643 22.8897 4.96422 0 0 0
409 35 1 -0.0639002 -1.9032 25.1764 8.28835 0 0 0
410 35 2 -0.1737 -3.00686 25.8562 9.12787 0 0 0
411 35 2 -0.1737 -4.22918 25.2648 9.37835 0 0 0
412 35 1 -0.0639002 -4.77744 23.8139 8.9606 0 0 0
413 35 3 0.0403668 -1.22292 25.8721 7.78844 0 0 0
414 35 3 0.0403668 -2.26528 24.5369 7.47808 0 0 0
415 35 3 0.0403668 -1.37686 24.4959 8.96395 0 0 0
416 35 4 0.1165 -2.90912 26.9184 9.32816 0 0 0
417 35 4 0.1165 -4.93064 25.9237 9.88012 0 0 0
418 35 3 0.0403668 -3.94925 23.1155 9.11198 0 0 0
419 35 3 0.0403668 -5.50423 23.4858 9.70945 0 0 0
420 35 3 0.0403668 -5.0303 23.9058 7.90026 0 0 0
421 36 1 -0.0639002 -0.745539 24.6602 12.8532 0 0 0
422 36 2 -0.1737 -2.09591 24.4526 12.2056 0 0 0
423 36 2 -0.1737 -3.34306 24.321 12.8162 0 0 0
424 36 1 -0.0639002 -3.6308 24.8106 14.3044 0 0 0
425 36 3 0.0403668 -0.78619 25.1215 13.8443 0 0 0
426 36 3 0.0403668 0.0116381 25.2323 12.3091 0 0 0
427 36 3 0.0403668 -0.275581 23.673 12.8853 0 0 0
428 36 4 0.1165 -2.03668 24.2593 11.1392 0 0 0
429 36 4 0.1165 -4.24139 23.9887 12.3057 0 0 0
430 36 3 0.0403668 -4.69012 25.0833 14.2993 0 0 0
431 36 3 0.0403668 -3.23728 24.1953 15.1187 0 0 0
432 36 3 0.0403668 -3.0687 25.737 14.4543 0 0 0
433 37 1 -0.0639002 -3.34137 23.6894 18.2868 0 0 0
434 37 2 -0.1737 -4.67497 24.5386 18.129 0 0 0
435 37 2 -0.1737 -5.20018 25.3102 19.2022 0 0 0
436 37 1 -0.0639002 -4.43817 25.501 20.5921 0 0 0
437 37 3 0.0403668 -2.72409 23.8252 17.394 0 0 0
438 37 3 0.0403668 -3.43197 22.6306 18.5463 0 0 0
439 37 3 0.0403668 -2.71015 24.075 19.0928 0 0 0
440 37 4 0.1165 -5.10373 24.7096 17.1467 0 0 0
441 37 4 0.1165 -5.95716 26.0551 18.9781 0 0 0
442 37 3 0.0403668 -5.04066 25.0408 21.3807 0 0 0
443 37 3 0.0403668 -3.39382 25.1921 20.6944 0 0 0
444 37 3 0.0403668 -4.47208 26.5184 20.9926 0 0 0
445 38 1 -0.0639002 -0.949813 23.362 23.4095 0 0 0
446 38 2 -0.1737 -1.45397 24.7289 23.1691 0 0 0
447 38 2 -0.1737 -2.73717 25.1589 23.4556 0 0 0
448 38 1 -0.0639002 -3.42622 24.7542 24.7595 0 0 0
449 38 3 0.0403668 0.053862 23.3203 23.8425 0 0 0
450 38 3 0.0403668 -0.958726 22.8735 22.4307 0 0 0
451 38 3 0.0403668 -1.68398 22.9071 24.0808 0 0 0
452 38 4 0.1165 -0.869753 25.3169 22.4684 0 0 0
453 38 4 0.1165 -2.958 26.1441 23.0572 0 0 0
454 38 3 0.0403668 -2.62074 24.7497 25.4996 0 0 0
455 38 3 0.0403668 -4.16259 25.5004 25.0719 0 0 0
456 38 3 0.0403668 -3.8877 23.7642 24.8185 0 0 0
457 39 1 -0.0639002 -2.75397 27.9162 0.105565 0 0 0
458 39 2 -0.1737 -3.27662 29.2627 -0.026889 0 0 0
459 39 2 -0.1737 -4.52169 29.7183 0.19868 0 0 0
460 39 1 -0.0639002 -5.73679 29.006 0.667641 0 0 0
461 39 3 0.0403668 -3.5664 27.1968 0.243787 0 0 0
462 39 3 0.0403668 -2.11886 27.7279 0.976092 0 0 0
463 39 3 0.0403668 -2.20325 27.7939 -0.831677 0 0 0
464 39 4 0.1165 -2.45094 29.9503 -0.180296 0 0 0
465 39 4 0.1165 -4.72556 30.7661 0.00258347 0 0 0
466 39 3 0.0403668 -5.88264 29.4905 1.63754 0 0 0
467 39 3 0.0403668 -6.62023 29.2334 0.063945 0 0 0
468 39 3 0.0403668 -5.60474 27.9263 0.783459 0 0 0
469 40 1 -0.0639002 -0.881098 28.2856 5.21652 0 0 0
470 40 2 -0.1737 -0.780179 29.5265 4.37087 0 0 0
471 40 2 -0.1737 -1.94029 30.2288 4.00478 0 0 0
472 40 1 -0.0639002 -3.3497 29.6415 3.73678 0 0 0
473 40 3 0.0403668 -0.926465 27.3084 4.72695 0 0 0
474 40 3 0.0403668 -1.88215 28.3085 5.65691 0 0 0
475 40 3 0.0403668 -0.151194 28.2149 6.02823 0 0 0
476 40 4 0.1165 0.208417 29.7871 4.00655 0 0 0
477 40 4 0.1165 -1.73381 31.2004 3.56736 0 0 0
478 40 3 0.0403668 -4.08008 30.3469 4.14367 0 0 0
479 40 3 0.0403668 -3.34434 29.4271 2.66408 0 0 0
480 40 3 0.0403668 -3.46336 28.6883 4.26134 0 0 0
481 41 1 -0.0639002 -2.35368 30.1417 8.9291 0 0 0
482 41 2 -0.1737 -3.36942 30.6902 8.03401 0 0 0
483 41 2 -0.1737 -4.64887 30.5697 8.09518 0 0 0
484 41 1 -0.0639002 -5.26037 29.8658 9.20835 0 0 0
485 41 3 0.0403668 -2.64009 29.9433 9.96607 0 0 0
486 41 3 0.0403668 -1.46468 30.7791 8.93267 0 0 0
487 41 3 0.0403668 -2.14518 29.1806 8.45016 0 0 0
488 41 4 0.1165 -3.01128 31.3353 7.23802 0 0 0
489 41 4 0.1165 -5.32024 31.1428 7.46363 0 0 0
490 41 3 0.0403668 -5.7095 30.5337 9.9492 0 0 0
491 41 3 0.0403668 -5.95242 29.1418 8.76842 0 0 0
492 41 3 0.0403668 -4.53768 29.2018 9.69151 0 0 0
493 42 1 -0.0639002 -0.991821 28.4887 11.9364 0 0 0
494 42 2 -0.1737 -1.48376 29.6701 12.8355 0 0 0
495 42 2 -0.1737 -2.78086 29.7529 13.3732 0 0 0
496 42 1 -0.0639002 -4.11037 29.0239 12.969 0 0 0
497 42 3 0.0403668 -0.158902 28.8316 11.3157 0 0 0
498 42 3 0.0403668 -1.82928 28.1247 11.3341 0 0 0
499 42 3 0.0403668 -0.629136 27.68 12.5776 0 0 0
500 42 4 0.1165 -0.712757 30.4041 13.0475 0 0 0
501 42 4 0.1165 -2.98865 30.5941 14.0269 0 0 0
502 42 3 0.0403668 -4.74817 28.657 13.7785 0 0 0
503 42 3 0.0403668 -4.5342 29.7992 12.3242 0 0 0
504 42 3 0.0403668 -3.91941 28.1103 12.3984 0 0 0
505 43 1 -0.0639002 -2.1253 28.067 16.5046 0 0 0
506 43 2 -0.1737 -1.9353 29.5322 16.7656 0 0 0
507 43 2 -0.1737 -2.96274 30.4335 17.1007 0 0 0
508 43 1 -0.0639002 -4.43285 30.2395 17.0621 0 0 0
509 43 3 0.0403668 -2.48112 27.6048 17.43 0 0 0
510 43 3 0.0403668 -1.18789 27.6323 16.1457 0 0 0
511 43 3 0.0403668 -2.86286 27.7945 15.7441 0 0 0
512 43 4 0.1165 -0.978127 30.0014 16.5615 0 0 0
513 43 4 0.1165 -2.63473 31.4551 17.2643 0 0 0
514 43 3 0.0403668 -4.90478 30.2866 18.0479 0 0 0
515 43 3 0.0403668 -4.99452 31.0016 16.5141 0 0 0
516 43 3 0.0403668 -4.53436 29.2976 16.5151 0 0 0
517 44 1 -0.0639002 -0.349337 29.6736 20.2284 0 0 0
518 44 2 -0.1737 -1.32467 30.5056 20.969 0 0 0
519 44 2 -0.1737 -2.57462 30.1884 21.2611 0 0 0
520 44 1 -0.0639002 -3.20253 28.9015 21.0328 0 0 0
521 44 3 0.0403668 -0.519158 28.5982 20.1226 0 0 0
522 44 3 0.0403668 0.631797 29.7349 20.7082 0 0 0
523 44 3 0.0403668 -0.209112 30.0937 19.2281 0 0 0
524 44 4 0.1165 -0.981249 31.504 21.2205 0 0 0
525 44 4 0.1165 -3.18388 30.9468 21.7423 0 0 0
526 44 3 0.0403668 -3.65739 28.7995 20.0432 0 0 0
527 44 3 0.0403668 -2.53077 28.0383 21.0194 0 0 0
528 44 3 0.0403668 -3.95584 28.7581 21.8129 0 0 0
529 45 1 -0.0639002 -1.38575 29.475 25.0872 0 0 0
530 45 2 -0.1737 -2.52677 30.3467 25.1921 0 0 0
531 45 2 -0.1737 -3.83285 29.9758 25.1494 0 0 0
532 45 1 -0.0639002 -4.3875 28.702 25.0356 0 0 0
533 45 3 0.0403668 -1.53578 28.4357 25.3938 0 0 0
534 45 3 0.0403668 -0.58137 29.9294 25.673 0 0 0
535 45 3 0.0403668 -1.12281 29.5257 24.0265 0 0 0
536 45 4 0.1165 -2.34215 31.3733 25.4924 0 0 0
537 45 4 0.1165 -4.62053 30.7159 25.2483 0 0 0
538 45 3 0.0403668 -4.68537 28.5075 24.0011 0 0 0
539 45 3 0.0403668 -3.68631 27.916 25.3306 0 0 0
540 45 3 0.0403668 -5.1601 28.6439 25.8078 0 0 0
541 46 1 -0.0639002 -1.37961 32.8449 -1.22619 0 0 0
542 46 2 -0.1737 -1.00984 33.5471 0.125064 0 0 0
543 46 2 -0.1737 -1.94884 34.4579 0.648801 0 0 0
544 46 1 -0.0639002 -3.451 34.4482 0.249427 0 0 0
545 46 3 0.0403668 -1.94081 33.5348 27.6178 0 0 -1
546 46 3 0.0403668 -2.01252 31.9682 -1.06039 0 0 0
547 46 3 0.0403668 -0.447379 32.4748 27.8182 0 0 -1
548 46 4 0.1165 -0.0269781 33.4906 0.581967 0 0 0
549 46 4 0.1165 -1.80138 34.9026 1.62787 0 0 0
550 46 3 0.0403668 -3.65776 33.7401 -0.558378 0 0 0
551 46 3 0.0403668 -3.96473 33.9506 1.07717 0 0 0
552 46 3 0.0403668 -3.86975 35.4048 -0.076477 0 0 0
553 47 1 -0.0639002 -1.3136 34.0296 4.76936 0 0 0
554 47 2 -0.1737 -2.83065 34.2624 4.52375 0 0 0
555 47 2 -0.1737 -3.70896 34.3995 5.43459 0 0 0
556 47 1 -0.0639002 -3.26577 34.6167 6.87763 0 0 0
557 47 3 0.0403668 -1.09842 33.2832 5.53951 0 0 0
558 47 3 0.0403668 -0.883892 34.9682 5.13141 0 0 0
559 47 3 0.0403668 -0.692243 33.839 3.88946 0 0 0
560 47 4 0.1165 -3.09248 34.5518 3.51094 0 0 0
561 47 4 0.1165 -4.72387 34.7429 5.26135 0 0 0
562 47 3 0.0403668 -3.89375 34.002 7.52917 0 0 0
563 47 3 0.0403668 -2.24222 34.3269 7.13249 0 0 0
564 47 3 0.0403668 -3.44129 35.6248 7.26415 0 0 0
565 48 1 -0.0639002 -2.11258 33.6388 10.7424 0 0 0
566 48 2 -0.1737 -2.93728 33.5591 11.9982 0 0 0
567 48 2 -0.1737 -3.58901 34.6931 12.4264 0 0 0
568 48 1 -0.0639002 -3.00816 36.0594 12.3489 0 0 0
569 48 3 0.0403668 -2.75751 33.453 9.8786 0 0 0
570 48 3 0.0403668 -1.31927 32.912 10.5448 0 0 0
571 48 3 0.0403668 -1.57487 34.569 10.537 0 0 0
572 48 4 0.1165 -3.35658 32.6267 12.3625 0 0 0
573 48 4 0.1165 -4.43667 34.607 13.0988 0 0 0
574 48 3 0.0403668 -2.66295 36.1977 11.3201 0 0 0
575 48 3 0.0403668 -3.68078 36.903 12.5288 0 0 0
576 48 3 0.0403668 -2.11665 36.172 12.9727 0 0 0
577 49 1 -0.0639002 -1.03039 34.2549 17.2866 0 0 0
578 49 2 -0.1737 -2.49719 34.8415 17.0229 0 0 0
579 49 2 -0.1737 -3.58793 35.0428 17.961 0 0 0
580 49 1 -0.0639002 -3.82448 34.6604 19.5151 0 0 0
581 49 3 0.0403668 -1.21673 33.6765 18.1962 0 0 0
582 49 3 0.0403668 -0.173068 34.9143 17.4504 0 0 0
583 49 3 0.0403668 -0.596775 33.7297 16.4306 0 0 0
584 49 4 0.1165 -2.64502 35.3074 16.0538 0 0 0
585 49 4 0.1165 -4.43319 35.5925 17.5593 0 0 0
586 49 3 0.0403668 -3.08076 33.9272 19.8404 0 0 0
587 49 3 0.0403668 -3.7842 35.6149 20.048 0 0 0
588 49 3 0.0403668 -4.81707 34.2445 19.7109 0 0 0
589 50 1 -0.0639002 -3.98066 35.288 23.2362 0 0 0
590 50 2 -0.1737 -3.08127 35.4343 24.4289 0 0 0
591 50 2 -0.1737 -3.6423 35.5058 25.6803 0 0 0
592 50 1 -0.0639002 -5.08427 35.9498 25.817 0 0 0
593 50 3 0.0403668 -4.66851 36.1355 23.1634 0 0 0
594 50 3 0.0403668 -4.525 34.3579 23.4235 0 0 0
595 50 3 0.0403668 -3.29686 35.2873 22.3823 0 0 0
596 50 4 0.1165 -2.01924 35.2652 24.2824 0 0 0
597 50 4 0.1165 -3.10442 35.1915 26.5691 0 0 0
598 50 3 0.0403668 -5.43377 36.1477 26.8345 0 0 0
599 50 3 0.0403668 -5.21953 36.8261 25.1763 0 0 0
600 50 3 0.0403668 -5.78965 35.2223 25.4049 0 0 0
601 51 1 -0.0639002 5.78784 -2.62781 -0.969836 0 0 0
602 51 2 -0.1737 6.22877 -1.26039 28.0987 0 0 -1
603 51 2 -0.1737 5.49017 -0.129576 28.0918 0 0 -1
604 51 1 -0.0639002 4.38636 0.188783 -0.388203 0 0 0