ITEM: TIMESTEP
100
ITEM: NUMBER OF ATOMS
4800
ITEM: BOX BOUNDS xy xz yz pp pp pp
-6.6579775276321165e+00 5.3582340727632953e+01 0.0000000000000000e+00
-3.3366991698773987e+00 3.6871311169877373e+01 0.0000000000000000e+00
-8.0282620070546784e-01 2.7777140920705470e+01 0.0000000000000000e+00
ITEM: ATOMS id mol type q x y z ix iy iz
1 1 1 -0.0639002 -1.30879 -1.4846 27.7132 0 0 -1
2 1 2 -0.1737 -2.45294 -0.512875 27.6435 0 0 -1
3 1 2 -0.1737 -3.1066 -0.437507 0.212178 0 0 0
4 1 1 -0.0639002 -4.557 -0.342656 0.248032 0 0 0
5 1 3 0.0403668 -1.13662 -1.54364 26.6343 0 0 -1
6 1 3 0.0403668 -1.77268 -2.44527 -0.62451 0 0 0
7 1 3 0.0403668 -0.371278 -1.34656 -0.320433 0 0 0
8 1 4 0.1165 -2.76081 -0.0371007 26.7176 0 0 -1
9 1 4 0.1165 -2.77335 -1.24556 0.855825 0 0 0
10 1 3 0.0403668 -4.80859 0.613032 0.717308 0 0 0
11 1 3 0.0403668 -4.72994 -0.173946 27.7609 0 0 -1
12 1 3 0.0403668 -4.75228 -1.22349 0.86683 0 0 0
13 2 1 -0.0639002 -2.2323 -1.90241 2.9862 0 0 0
14 2 2 -0.1737 -2.16589 -1.28216 4.20073 0 0 0
15 2 2 -0.1737 -3.07768 -0.286444 4.39897 0 0 0
16 2 1 -0.0639002 -4.35636 -0.477509 4.41353 0 0 0
17 2 3 0.0403668 -3.20931 -1.81471 2.5021 0 0 0
18 2 3 0.0403668 -2.06197 -2.96018 2.76501 0 0 0
19 2 3 0.0403668 -1.47157 -1.49325 2.31492 0 0 0
20 2 4 0.1165 -1.16738 -1.11388 4.59133 0 0 0
21 2 4 0.1165 -2.83923 0.636743 4.91773 0 0 0
22 2 3 0.0403668 -4.70909 -0.895997 5.3609 0 0 0
23 2 3 0.0403668 -4.52513 0.572724 4.66916 0 0 0
24 2 3 0.0403668 -4.72243 -1.00357 3.52681 0 0 0
25 3 1 -0.0639002 -2.19631 -2.17292 7.50499 0 0 0
26 3 2 -0.1737 -2.45305 -0.88314 7.75017 0 0 0
27 3 2 -0.1737 -3.38047 -0.23299 8.24335 0 0 0
28 3 1 -0.0639002 -4.59654 -0.72253 8.45689 0 0 0
29 3 3 0.0403668 -2.99445 -2.57645 6.87507 0 0 0
30 3 3 0.0403668 -2.14215 -2.80914 8.39344 0 0 0
31 3 3 0.0403668 -1.30634 -2.50372 6.96169 0 0 0
32 3 4 0.1165 -1.61424 -0.293012 7.39498 0 0 0
33 3 4 0.1165 -3.12603 0.779402 8.54092 0 0 0
34 3 3 0.0403668 -4.97686 -0.552049 9.46852 0 0 0
35 3 3 0.0403668 -5.08851 0.0844944 7.90597 0 0 0
36 3 3 0.0403668 -4.56153 -1.74835 8.07828 0 0 0
37 4 1 -0.0639002 -1.69616 -1.56368 12.2383 0 0 0
38 4 2 -0.1737 -2.56574 -0.656672 11.6369 0 0 0
39 4 2 -0.1737 -3.48942 0.0605371 12.0187 0 0 0
40 4 1 -0.0639002 -4.17814 0.0759988 13.1842 0 0 0
41 4 3 0.0403668 -1.90591 -1.82095 13.2809 0 0 0
42 4 3 0.0403668 -0.725907 -1.09869 12.0412 0 0 0
43 4 3 0.0403668 -1.8663 -2.51728 11.7298 0 0 0
44 4 4 0.1165 -2.42004 -0.344663 10.6073 0 0 0
45 4 4 0.1165 -3.92384 0.679726 11.2401 0 0 0
46 4 3 0.0403668 -4.42546 1.11768 13.4091 0 0 0
47 4 3 0.0403668 -4.97888 -0.159227 12.477 0 0 0
48 4 3 0.0403668 -3.62721 -0.611423 13.8329 0 0 0
49 5 1 -0.0639002 -1.14704 -1.87941 18.183 0 0 0
50 5 2 -0.1737 -2.21526 -0.967264 17.6163 0 0 0
51 5 2 -0.1737 -2.98734 -0.34702 18.5548 0 0 0
52 5 1 -0.0639002 -4.42742 -0.128738 18.056 0 0 0
53 5 3 0.0403668 -0.979699 -2.39828 17.2344 0 0 0
54 5 3 0.0403668 -1.56952 -2.73661 18.7155 0 0 0
55 5 3 0.0403668 -0.250665 -1.62064 18.7541 0 0 0
56 5 4 0.1165 -2.55173 -1.1146 16.5948 0 0 0
57 5 4 0.1165 -3.08565 -0.731453 19.5653 0 0 0
58 5 3 0.0403668 -5.08948 -0.352893 18.8976 0 0 0
59 5 3 0.0403668 -4.44523 0.963153 18.1215 0 0 0
60 5 3 0.0403668 -4.68144 -0.675554 17.143 0 0 0
61 6 1 -0.0639002 -0.843499 -1.5276 22.8017 0 0 0
62 6 2 -0.1737 -2.05822 -0.899583 22.4066 0 0 0
63 6 2 -0.1737 -3.24761 -1.05122 22.8188 0 0 0
64 6 1 -0.0639002 -3.71435 -1.32529 23.986 0 0 0
65 6 3 0.0403668 -0.54621 -1.90977 23.7828 0 0 0
66 6 3 0.0403668 -0.0956558 -0.856845 22.3686 0 0 0
67 6 3 0.0403668 -0.717047 -2.47656 22.2722 0 0 0
68 6 4 0.1165 -2.21354 -0.187105 21.6025 0 0 0
69 6 4 0.1165 -3.95054 -1.05638 21.9916 0 0 0
70 6 3 0.0403668 -3.79015 -0.400108 24.565 0 0 0
71 6 3 0.0403668 -4.74575 -1.52479 23.6813 0 0 0
72 6 3 0.0403668 -3.09217 -2.10108 24.4419 0 0 0
73 7 1 -0.0639002 -1.18934 3.27386 0.708617 0 0 0
74 7 2 -0.1737 -1.97691 4.3055 0.292971 0 0 0
75 7 2 -0.1737 -3.08772 4.73249 0.656284 0 0 0
76 7 1 -0.0639002 -4.05422 4.1718 1.25499 0 0 0
77 7 3 0.0403668 -0.911259 2.81969 -0.247141 0 0 0
78 7 3 0.0403668 -1.53615 2.48209 1.37918 0 0 0
79 7 3 0.0403668 -0.30107 3.70878 1.17593 0 0 0
80 7 4 0.1165 -1.78065 4.71468 -0.693202 0 0 0
81 7 4 0.1165 -3.46628 5.59954 0.124163 0 0 0
82 7 3 0.0403668 -4.56361 4.96055 1.81645 0 0 0
83 7 3 0.0403668 -4.59367 4.26666 0.307892 0 0 0
84 7 3 0.0403668 -3.82874 3.24712 1.79448 0 0 0
85 8 1 -0.0639002 -1.25725 4.15225 5.28164 0 0 0
86 8 2 -0.1737 -2.072 5.07498 4.54714 0 0 0
87 8 2 -0.1737 -3.28048 5.45542 4.80439 0 0 0
88 8 1 -0.0639002 -4.19986 4.70016 5.55124 0 0 0
89 8 3 0.0403668 -1.57598 4.1547 6.3283 0 0 0
90 8 3 0.0403668 -0.252127 4.57565 5.19821 0 0 0
91 8 3 0.0403668 -1.26934 3.16831 4.80348 0 0 0
92 8 4 0.1165 -1.4682 5.46053 3.73164 0 0 0
93 8 4 0.1165 -3.67351 6.40949 4.46751 0 0 0
94 8 3 0.0403668 -4.27017 3.78022 4.96329 0 0 0
95 8 3 0.0403668 -3.91451 4.69295 6.60745 0 0 0
96 8 3 0.0403668 -5.18877 5.14099 5.39568 0 0 0
97 9 1 -0.0639002 -1.40089 3.19708 10.2145 0 0 0
98 9 2 -0.1737 -3.05732 3.50208 10.3079 0 0 0
99 9 2 -0.1737 -3.3608 4.63399 10.9645 0 0 0
100 9 1 -0.0639002 -4.16781 4.54031 12.2544 0 0 0
101 9 3 0.0403668 -1.47997 2.19909 9.77333 0 0 0
102 9 3 0.0403668 -1.08123 2.8381 11.1973 0 0 0
103 9 3 0.0403668 -0.65074 3.9259 9.89397 0 0 0
104 9 4 0.1165 -3.77206 2.70162 10.4705 0 0 0
105 9 4 0.1165 -2.63017 5.40911 11.1727 0 0 0
106 9 3 0.0403668 -5.04668 5.18769 12.3254 0 0 0
107 9 3 0.0403668 -4.61319 3.56395 12.042 0 0 0
108 9 3 0.0403668 -3.45491 4.57076 13.0837 0 0 0
109 10 1 -0.0639002 -1.12394 3.09749 17.1078 0 0 0
110 10 2 -0.1737 -2.15667 4.17953 17.1763 0 0 0
111 10 2 -0.1737 -3.10274 3.94035 18.254 0 0 0
112 10 1 -0.0639002 -4.56916 4.32827 17.6387 0 0 0
113 10 3 0.0403668 -1.08691 2.72968 16.0781 0 0 0
114 10 3 0.0403668 -1.51099 2.16659 17.5326 0 0 0
115 10 3 0.0403668 -0.0938923 3.29815 17.4164 0 0 0
116 10 4 0.1165 -2.30623 4.85687 16.3413 0 0 0
117 10 4 0.1165 -3.32341 3.01913 18.7839 0 0 0
118 10 3 0.0403668 -5.20374 4.59689 18.4885 0 0 0
119 10 3 0.0403668 -4.4673 5.30303 17.1526 0 0 0
120 10 3 0.0403668 -4.68695 3.38529 17.0967 0 0 0
121 11 1 -0.0639002 -2.36157 2.90844 21.443 0 0 0
122 11 2 -0.1737 -2.7217 4.09358 22.0685 0 0 0
123 11 2 -0.1737 -3.94915 4.73321 21.8944 0 0 0
124 11 1 -0.0639002 -5.23585 4.02987 21.637 0 0 0
125 11 3 0.0403668 -2.8862 2.20199 22.093 0 0 0
126 11 3 0.0403668 -1.37838 2.53999 21.7497 0 0 0
127 11 3 0.0403668 -2.52051 2.72559 20.376 0 0 0
128 11 4 0.1165 -2.08502 4.60562 22.7831 0 0 0
129 11 4 0.1165 -4.07297 5.67853 22.4133 0 0 0
130 11 3 0.0403668 -5.81903 4.76359 21.0727 0 0 0
131 11 3 0.0403668 -5.04441 3.16092 21.0005 0 0 0
132 11 3 0.0403668 -5.50966 3.76244 22.662 0 0 0
133 12 1 -0.0639002 -1.70296 2.76975 25.3715 0 0 0
134 12 2 -0.1737 -2.18831 4.06648 25.4152 0 0 0
135 12 2 -0.1737 -3.48593 4.37948 25.3082 0 0 0
136 12 1 -0.0639002 -4.5137 3.71793 25.8585 0 0 0
137 12 3 0.0403668 -2.17631 2.28985 24.5097 0 0 0
138 12 3 0.0403668 -1.81611 2.20495 26.3017 0 0 0
139 12 3 0.0403668 -0.61366 2.86637 25.3924 0 0 0
140 12 4 0.1165 -1.58025 4.83276 24.9449 0 0 0
141 12 4 0.1165 -3.66497 5.34068 24.8367 0 0 0
142 12 3 0.0403668 -4.92301 4.18902 26.7571 0 0 0
143 12 3 0.0403668 -5.2368 4.09993 25.1318 0 0 0
144 12 3 0.0403668 -4.21387 2.6788 26.0232 0 0 0
145 13 1 -0.0639002 -1.31765 8.09833 1.84097 0 0 0
146 13 2 -0.1737 -2.06993 9.07781 1.23129 0 0 0
147 13 2 -0.1737 -3.20075 9.51498 1.61582 0 0 0
148 13 1 -0.0639002 -3.94348 9.42484 2.66545 0 0 0
149 13 3 0.0403668 -1.81187 7.55317 2.65059 0 0 0
150 13 3 0.0403668 -0.443749 8.67109 2.16473 0 0 0
151 13 3 0.0403668 -0.955921 7.36528 1.11383 0 0 0
152 13 4 0.1165 -2.01552 9.2619 0.162787 0 0 0
153 13 4 0.1165 -3.8053 9.79525 0.758919 0 0 0
154 13 3 0.0403668 -4.53443 8.59717 2.26232 0 0 0
155 13 3 0.0403668 -3.37091 9.33531 3.59338 0 0 0
156 13 3 0.0403668 -4.62631 10.2702 2.5402 0 0 0
157 14 1 -0.0639002 -2.00973 8.29747 9.94568 0 0 0
158 14 2 -0.1737 -2.81216 9.17568 10.6761 0 0 0
159 14 2 -0.1737 -4.00729 8.95965 11.1793 0 0 0
160 14 1 -0.0639002 -5.28442 9.14972 10.4603 0 0 0
161 14 3 0.0403668 -2.68436 8.10451 9.10633 0 0 0
162 14 3 0.0403668 -1.72031 7.35598 10.4218 0 0 0
163 14 3 0.0403668 -0.985322 8.64064 9.77449 0 0 0
164 14 4 0.1165 -2.4198 10.178 10.536 0 0 0
165 14 4 0.1165 -4.16779 9.44073 12.1391 0 0 0
166 14 3 0.0403668 -5.17168 9.39405 9.39981 0 0 0
167 14 3 0.0403668 -5.61156 8.11777 10.618 0 0 0
168 14 3 0.0403668 -5.92751 9.89844 10.9321 0 0 0
169 15 1 -0.0639002 -1.95626 7.5172 13.9298 0 0 0
170 15 2 -0.1737 -2.34815 8.61666 14.6731 0 0 0
171 15 2 -0.1737 -3.67327 9.10558 14.8619 0 0 0
172 15 1 -0.0639002 -4.83537 8.23084 14.7323 0 0 0
173 15 3 0.0403668 -2.54164 6.60581 14.0827 0 0 0
174 15 3 0.0403668 -0.964422 7.15999 14.2216 0 0 0
175 15 3 0.0403668 -2.10733 7.64532 12.8538 0 0 0
176 15 4 0.1165 -1.66745 9.27989 15.1974 0 0 0
177 15 4 0.1165 -3.58363 10.0783 15.3351 0 0 0
178 15 3 0.0403668 -5.2127 7.98827 15.7302 0 0 0
179 15 3 0.0403668 -5.61175 8.7517 14.1643 0 0 0
180 15 3 0.0403668 -4.59123 7.27732 14.2547 0 0 0
181 16 1 -0.0639002 -1.80188 7.90013 17.7274 0 0 0
182 16 2 -0.1737 -2.00693 8.97518 18.5668 0 0 0
183 16 2 -0.1737 -3.2315 9.72668 18.5962 0 0 0
184 16 1 -0.0639002 -4.47648 9.13834 18.534 0 0 0
185 16 3 0.0403668 -2.2883 8.31276 16.8385 0 0 0
186 16 3 0.0403668 -2.51143 7.0792 17.8663 0 0 0
187 16 3 0.0403668 -0.804212 7.45174 17.7369 0 0 0
188 16 4 0.1165 -1.19305 9.61638 18.8901 0 0 0
189 16 4 0.1165 -3.28232 10.5538 19.2974 0 0 0
190 16 3 0.0403668 -4.99345 9.65747 19.3465 0 0 0
191 16 3 0.0403668 -4.76075 9.75946 17.6793 0 0 0
192 16 3 0.0403668 -4.39797 8.04721 18.5437 0 0 0
193 17 1 -0.0639002 -1.73224 8.17279 21.445 0 0 0
194 17 2 -0.1737 -1.99997 9.19695 22.2886 0 0 0
195 17 2 -0.1737 -3.02832 9.86361 22.6774 0 0 0
196 17 1 -0.0639002 -4.22739 9.54071 22.3872 0 0 0
197 17 3 0.0403668 -2.51189 7.82086 20.7631 0 0 0
198 17 3 0.0403668 -1.28102 7.2957 21.9182 0 0 0
199 17 3 0.0403668 -0.899066 8.40051 20.7737 0 0 0
200 17 4 0.1165 -1.21217 9.91393 22.4967 0 0 0
201 17 4 0.1165 -2.86546 10.8925 22.9826 0 0 0
202 17 3 0.0403668 -4.77493 8.92467 23.1066 0 0 0
203 17 3 0.0403668 -4.39927 10.6152 22.2745 0 0 0
204 17 3 0.0403668 -4.19339 8.89335 21.5058 0 0 0
205 18 1 -0.0639002 -1.2878 8.18093 25.6498 0 0 0
206 18 2 -0.1737 -2.08715 9.37303 25.8985 0 0 0
207 18 2 -0.1737 -3.22471 9.6106 26.2937 0 0 0
208 18 1 -0.0639002 -4.2344 8.68252 26.0401 0 0 0
209 18 3 0.0403668 -0.76241 8.5299 24.7559 0 0 0
210 18 3 0.0403668 -1.8228 7.2749 25.3505 0 0 0
211 18 3 0.0403668 -0.705828 7.9752 26.5531 0 0 0
212 18 4 0.1165 -1.79187 10.3364 25.4949 0 0 0
213 18 4 0.1165 -3.524 10.6354 26.0976 0 0 0
214 18 3 0.0403668 -4.19316 7.84424 25.3383 0 0 0
215 18 3 0.0403668 -4.40673 8.59255 27.1168 0 0 0
216 18 3 0.0403668 -4.8532 9.47438 25.6078 0 0 0
217 19 1 -0.0639002 -2.25185 12.8342 -0.0152313 0 0 0
218 19 2 -0.1737 -2.43 14.0658 0.45696 0 0 0
219 19 2 -0.1737 -3.54933 14.7911 0.65363 0 0 0
220 19 1 -0.0639002 -4.78008 14.3101 1.3472 0 0 0
221 19 3 0.0403668 -2.57916 12.9251 27.5247 0 0 -1
222 19 3 0.0403668 -3.05713 12.2373 0.422905 0 0 0
223 19 3 0.0403668 -1.35979 12.2428 0.210662 0 0 0
224 19 4 0.1165 -1.59805 14.7521 0.578839 0 0 0
225 19 4 0.1165 -3.32479 15.8416 0.809016 0 0 0
226 19 3 0.0403668 -4.99273 15.2231 1.9111 0 0 0
227 19 3 0.0403668 -5.57933 14.2657 0.601554 0 0 0
228 19 3 0.0403668 -4.39418 13.5783 2.06308 0 0 0
229 20 1 -0.0639002 -2.25152 12.487 3.50686 0 0 0
230 20 2 -0.1737 -2.18102 13.9144 3.86071 0 0 0
231 20 2 -0.1737 -3.02228 14.8756 4.29409 0 0 0
232 20 1 -0.0639002 -4.40506 14.7954 4.77763 0 0 0
233 20 3 0.0403668 -3.20963 12.2652 3.02789 0 0 0
234 20 3 0.0403668 -2.11452 11.7688 4.32079 0 0 0
235 20 3 0.0403668 -1.63219 12.0335 2.72737 0 0 0
236 20 4 0.1165 -1.16215 14.2358 3.66973 0 0 0
237 20 4 0.1165 -2.44335 15.7006 4.69697 0 0 0
238 20 3 0.0403668 -4.75935 15.633 5.38573 0 0 0
239 20 3 0.0403668 -5.12629 14.8619 3.95771 0 0 0
240 20 3 0.0403668 -4.44223 13.7862 5.19844 0 0 0
241 21 1 -0.0639002 -1.9888 12.8002 7.05246 0 0 0
242 21 2 -0.1737 -2.39769 14.069 7.7059 0 0 0
243 21 2 -0.1737 -3.67669 14.6407 7.99205 0 0 0
244 21 1 -0.0639002 -4.91501 13.7677 8.33881 0 0 0
245 21 3 0.0403668 -2.64559 12.8288 6.17801 0 0 0
246 21 3 0.0403668 -2.15104 11.9785 7.75641 0 0 0
247 21 3 0.0403668 -0.929532 12.5404 6.96944 0 0 0
248 21 4 0.1165 -1.63156 14.788 7.97793 0 0 0
249 21 4 0.1165 -3.73983 15.7018 8.21182 0 0 0
250 21 3 0.0403668 -5.28436 13.9971 9.3428 0 0 0
251 21 3 0.0403668 -5.73354 14.1319 7.71107 0 0 0
252 21 3 0.0403668 -4.6175 12.7309 8.15645 0 0 0
253 22 1 -0.0639002 -2.09511 13.3736 10.7296 0 0 0
254 22 2 -0.1737 -2.26674 14.7762 10.9081 0 0 0
255 22 2 -0.1737 -3.18769 15.4007 11.3939 0 0 0
256 22 1 -0.0639002 -4.58042 15.1303 11.5002 0 0 0
257 22 3 0.0403668 -2.97865 12.735 10.6398 0 0 0
258 22 3 0.0403668 -1.63464 12.889 11.5957 0 0 0
259 22 3 0.0403668 -1.62728 13.051 9.79475 0 0 0
260 22 4 0.1165 -1.39772 15.204 10.4183 0 0 0
261 22 4 0.1165 -2.93675 16.453 11.4829 0 0 0
262 22 3 0.0403668 -4.75276 15.6087 12.4689 0 0 0
263 22 3 0.0403668 -5.05901 15.8187 10.7973 0 0 0
264 22 3 0.0403668 -4.47695 14.0467 11.3917 0 0 0
265 23 1 -0.0639002 -2.21993 12.445 14.3384 0 0 0
266 23 2 -0.1737 -2.20289 13.8271 14.8304 0 0 0
267 23 2 -0.1737 -3.2088 14.7407 15.0722 0 0 0
268 23 1 -0.0639002 -4.60472 14.574 15.3858 0 0 0
269 23 3 0.0403668 -2.88 12.6133 13.4824 0 0 0
270 23 3 0.0403668 -2.64814 11.8493 15.1501 0 0 0
271 23 3 0.0403668 -1.28381 11.8795 14.3581 0 0 0
272 23 4 0.1165 -1.23113 14.2661 15.0325 0 0 0
273 23 4 0.1165 -2.92717 15.7319 15.4133 0 0 0
274 23 3 0.0403668 -4.78148 14.6658 16.4617 0 0 0
275 23 3 0.0403668 -5.04509 15.575 15.3575 0 0 0
276 23 3 0.0403668 -4.99677 13.6444 14.9627 0 0 0
277 24 1 -0.0639002 -1.1709 13.2566 17.7451 0 0 0
278 24 2 -0.1737 -1.74633 14.5365 18.1558 0 0 0
279 24 2 -0.1737 -2.82071 14.845 18.8088 0 0 0
280 24 1 -0.0639002 -3.99379 14.122 18.8653 0 0 0
281 24 3 0.0403668 -0.449596 13.6577 17.0271 0 0 0
282 24 3 0.0403668 -1.78497 12.5427 17.1883 0 0 0
283 24 3 0.0403668 -0.755833 12.6733 18.5725 0 0 0
284 24 4 0.1165 -1.47586 15.4541 17.6428 0 0 0
285 24 4 0.1165 -2.99742 15.8865 19.0581 0 0 0
286 24 3 0.0403668 -4.80689 14.7376 18.4698 0 0 0
287 24 3 0.0403668 -3.63192 13.5573 18.0008 0 0 0
288 24 3 0.0403668 -4.11515 13.4991 19.7565 0 0 0
289 25 1 -0.0639002 -1.87741 13.3785 21.4465 0 0 0
290 25 2 -0.1737 -2.22411 14.4697 21.9957 0 0 0
291 25 2 -0.1737 -3.42619 14.9676 22.3659 0 0 0
292 25 1 -0.0639002 -4.53922 14.4633 22.0347 0 0 0
293 25 3 0.0403668 -1.91032 13.3411 20.3535 0 0 0
294 25 3 0.0403668 -2.35958 12.5273 21.9363 0 0 0
295 25 3 0.0403668 -0.820923 13.1913 21.6593 0 0 0
296 25 4 0.1165 -1.61381 15.3672 22.0097 0 0 0
297 25 4 0.1165 -3.62884 15.9721 22.7241 0 0 0
298 25 3 0.0403668 -4.55565 13.401 22.2957 0 0 0
299 25 3 0.0403668 -5.18446 15.1637 22.5731 0 0 0
300 25 3 0.0403668 -4.84974 14.8 21.0411 0 0 0
301 26 1 -0.0639002 -1.59388 13.2981 24.9299 0 0 0
302 26 2 -0.1737 -1.98335 14.6511 25.3286 0 0 0
303 26 2 -0.1737 -3.07373 15.2246 25.7525 0 0 0
304 26 1 -0.0639002 -4.38937 14.7133 25.7134 0 0 0
305 26 3 0.0403668 -2.37669 12.5753 24.682 0 0 0
306 26 3 0.0403668 -0.809409 12.7824 25.4915 0 0 0
307 26 3 0.0403668 -1.26283 13.4892 23.9047 0 0 0
308 26 4 0.1165 -1.30023 15.3981 24.937 0 0 0
309 26 4 0.1165 -3.11648 16.2925 25.5627 0 0 0
310 26 3 0.0403668 -4.77353 15.581 26.2577 0 0 0
311 26 3 0.0403668 -4.577 15.0898 24.7034 0 0 0
312 26 3 0.0403668 -4.35267 13.7325 26.1968 0 0 0
313 27 1 -0.0639002 -1.48546 18.2446 1.61317 0 0 0
314 27 2 -0.1737 -1.90521 19.6425 1.03631 0 0 0
315 27 2 -0.1737 -3.15304 20.076 1.11857 0 0 0
316 27 1 -0.0639002 -3.86786 20.1945 2.538 0 0 0
317 27 3 0.0403668 -0.819453 17.8502 0.840044 0 0 0
318 27 3 0.0403668 -2.30305 17.6688 1.16984 0 0 0
319 27 3 0.0403668 -1.11138 18.0522 2.62318 0 0 0
320 27 4 0.1165 -1.35118 19.9859 0.168287 0 0 0
321 27 4 0.1165 -3.64593 20.4918 0.245335 0 0 0
322 27 3 0.0403668 -4.27124 21.2113 2.55073 0 0 0
323 27 3 0.0403668 -4.70607 19.5613 2.23285 0 0 0
324 27 3 0.0403668 -3.10561 19.977 3.29191 0 0 0
325 28 1 -0.0639002 -1.34518 18.4656 8.39806 0 0 0
326 28 2 -0.1737 -2.46035 19.0782 7.49445 0 0 0
327 28 2 -0.1737 -3.84532 19.4204 7.57059 0 0 0
328 28 1 -0.0639002 -4.73298 19.1058 8.6702 0 0 0
329 28 3 0.0403668 -1.89934 17.5347 8.54998 0 0 0
330 28 3 0.0403668 -1.45135 18.9057 9.39415 0 0 0
331 28 3 0.0403668 -0.35461 18.567 7.94523 0 0 0
332 28 4 0.1165 -2.01569 19.7526 6.76935 0 0 0
333 28 4 0.1165 -4.26477 20.1225 6.85687 0 0 0
334 28 3 0.0403668 -4.93944 18.0319 8.63942 0 0 0
335 28 3 0.0403668 -4.15884 19.4009 9.55351 0 0 0
336 28 3 0.0403668 -5.64238 19.6737 8.45338 0 0 0
337 29 1 -0.0639002 -1.87102 18.7472 13.1436 0 0 0
338 29 2 -0.1737 -2.07986 19.1992 14.3897 0 0 0
339 29 2 -0.1737 -3.00021 19.9309 14.6845 0 0 0
340 29 1 -0.0639002 -4.25477 20.1084 14.1602 0 0 0
341 29 3 0.0403668 -2.74239 18.3023 12.6543 0 0 0
342 29 3 0.0403668 -1.29692 17.8161 13.1282 0 0 0
343 29 3 0.0403668 -1.43886 19.5037 12.4819 0 0 0
344 29 4 0.1165 -1.09389 19.1698 14.8424 0 0 0
345 29 4 0.1165 -2.81336 20.5514 15.5554 0 0 0
346 29 3 0.0403668 -4.52372 21.1245 14.4636 0 0 0
347 29 3 0.0403668 -3.90642 20.3367 13.1485 0 0 0
348 29 3 0.0403668 -4.82842 19.2065 14.3932 0 0 0
349 30 1 -0.0639002 -1.81465 18.4378 17.5387 0 0 0
350 30 2 -0.1737 -2.2677 19.544 18.295 0 0 0
351 30 2 -0.1737 -3.50803 19.7662 18.5977 0 0 0
352 30 1 -0.0639002 -4.51378 18.7973 18.5493 0 0 0
353 30 3 0.0403668 -0.887711 18.8287 17.1091 0 0 0
354 30 3 0.0403668 -2.44357 18.1653 16.686 0 0 0
355 30 3 0.0403668 -1.78072 17.4538 18.0158 0 0 0
356 30 4 0.1165 -1.84386 20.5348 18.1655 0 0 0
357 30 4 0.1165 -3.77406 20.8011 18.7884 0 0 0
358 30 3 0.0403668 -4.74194 18.3476 19.5202 0 0 0
359 30 3 0.0403668 -5.34395 19.4898 18.3824 0 0 0
360 30 3 0.0403668 -4.14445 18.0653 17.8248 0 0 0
361 31 1 -0.0639002 -1.99004 18.5162 21.9725 0 0 0
362 31 2 -0.1737 -2.41302 19.7697 21.9263 0 0 0
363 31 2 -0.1737 -3.51125 20.1933 22.2522 0 0 0
364 31 1 -0.0639002 -4.71903 19.6611 22.7181 0 0 0
365 31 3 0.0403668 -1.56364 18.3751 20.9748 0 0 0
366 31 3 0.0403668 -2.69082 17.6897 22.122 0 0 0
367 31 3 0.0403668 -1.0237 18.229 22.397 0 0 0
368 31 4 0.1165 -1.55223 20.3123 21.5487 0 0 0
369 31 4 0.1165 -3.54144 21.2715 22.3738 0 0 0
370 31 3 0.0403668 -4.88895 20.0549 23.7247 0 0 0
371 31 3 0.0403668 -5.30272 20.3031 22.0518 0 0 0
372 31 3 0.0403668 -4.59549 18.5795 22.6103 0 0 0
373 32 1 -0.0639002 -0.844801 18.352 25.3516 0 0 0
374 32 2 -0.1737 -1.57294 19.5093 25.6092 0 0 0
375 32 2 -0.1737 -2.81845 19.6796 25.7273 0 0 0
376 32 1 -0.0639002 -3.71625 18.9394 26.4169 0 0 0
377 32 3 0.0403668 -1.27402 17.9459 24.4308 0 0 0
378 32 3 0.0403668 -0.775555 17.5319 26.0724 0 0 0
379 32 3 0.0403668 0.163887 18.6691 25.0714 0 0 0
380 32 4 0.1165 -1.26357 20.3698 25.0243 0 0 0
381 32 4 0.1165 -3.29896 20.591 25.386 0 0 0
382 32 3 0.0403668 -3.18163 18.1192 26.905 0 0 0
383 32 3 0.0403668 -3.79399 19.8237 27.0564 0 0 0
384 32 3 0.0403668 -4.36653 18.7874 25.5504 0 0 0
385 33 1 -0.0639002 -0.856454 23.2314 0.116465 0 0 0
386 33 2 -0.1737 -1.76828 24.2305 -0.315142 0 0 0
387 33 2 -0.1737 -3.00496 24.5015 -0.0914477 0 0 0
388 33 1 -0.0639002 -3.94339 24.046 0.794355 0 0 0
389 33 3 0.0403668 -0.681575 22.6995 27.7564 0 0 -1
390 33 3 0.0403668 -1.05868 22.606 0.9911 0 0 0
391 33 3 0.0403668 0.154896 23.5579 0.375366 0 0 0
392 33 4 0.1165 -1.48857 24.8829 27.4435 0 0 -1
393 33 4 0.1165 -3.19647 25.2252 27.7024 0 0 -1
394 33 3 0.0403668 -3.87169 22.9856 1.05396 0 0 0
395 33 3 0.0403668 -3.49728 24.764 1.48886 0 0 0
396 33 3 0.0403668 -4.86455 24.2847 0.254809 0 0 0
397 34 1 -0.0639002 -1.81548 22.6696 3.83154 0 0 0
398 34 2 -0.1737 -1.99851 23.8789 4.23284 0 0 0
399 34 2 -0.1737 -3.14409 24.5296 4.28338 0 0 0
400 34 1 -0.0639002 -4.2584 23.9879 4.73025 0 0 0
401 34 3 0.0403668 -1.89153 22.883 2.76115 0 0 0
402 34 3 0.0403668 -2.40189 21.7732 4.05388 0 0 0
403 34 3 0.0403668 -0.868379 22.2426 4.17401 0 0 0
404 34 4 0.1165 -1.2124 24.6012 4.03694 0 0 0
405 34 4 0.1165 -3.03786 25.5827 4.04293 0 0 0
406 34 3 0.0403668 -4.74225 24.9595 4.86655 0 0 0
407 34 3 0.0403668 -4.81005 23.6807 3.83679 0 0 0
408 34 3 0.0403668 -4.00544 23.2353 5.48302 0 0 0
409 35 1 -0.0639002 -1.64039 23.6084 7.81594 0 0 0
410 35 2 -0.1737 -2.2942 24.8807 7.83372 0 0 0
411 35 2 -0.1737 -3.51191 25.0742 8.03434 0 0 0
412 35 1 -0.0639002 -4.44172 24.3088 8.69738 0 0 0
413 35 3 0.0403668 -0.996306 23.7891 6.95025 0 0 0
414 35 3 0.0403668 -2.2382 22.6956 7.73831 0 0 0
415 35 3 0.0403668 -0.950291 23.6063 8.66484 0 0 0
416 35 4 0.1165 -1.9735 25.8064 7.36636 0 0 0
417 35 4 0.1165 -3.73436 25.9801 7.47927 0 0 0
418 35 3 0.0403668 -4.7429 23.3605 8.24259 0 0 0
419 35 3 0.0403668 -3.94477 24.268 9.67119 0 0 0
420 35 3 0.0403668 -5.30226 24.9474 8.47767 0 0 0
421 36 1 -0.0639002 -1.88279 22.5244 12.1654 0 0 0
422 36 2 -0.1737 -2.30292 23.7781 11.7667 0 0 0
423 36 2 -0.1737 -3.2 24.5619 12.1584 0 0 0
424 36 1 -0.0639002 -3.92742 24.4767 13.2055 0 0 0
425 36 3 0.0403668 -2.40416 21.783 11.5528 0 0 0
426 36 3 0.0403668 -1.93448 22.309 13.2368 0 0 0
427 36 3 0.0403668 -0.799495 22.5862 12.0274 0 0 0
428 36 4 0.1165 -2.15563 24.0249 10.7198 0 0 0
429 36 4 0.1165 -3.38884 25.3989 11.4935 0 0 0
430 36 3 0.0403668 -4.82482 24.9164 12.7606 0 0 0
431 36 3 0.0403668 -4.07903 23.4052 13.045 0 0 0
432 36 3 0.0403668 -3.44214 24.951 14.0637 0 0 0
433 37 1 -0.0639002 -2.31307 23.4073 17.5417 0 0 0
434 37 2 -0.1737 -3.38752 24.2852 17.627 0 0 0
435 37 2 -0.1737 -4.13643 24.9008 18.4811 0 0 0
436 37 1 -0.0639002 -4.62779 24.37 19.7094 0 0 0
437 37 3 0.0403668 -2.70035 22.7534 16.7547 0 0 0
438 37 3 0.0403668 -2.12541 22.7904 18.4256 0 0 0
439 37 3 0.0403668 -1.35542 23.8212 17.2129 0 0 0
440 37 4 0.1165 -3.28581 24.8287 16.6928 0 0 0
441 37 4 0.1165 -3.56809 25.802 18.6883 0 0 0
442 37 3 0.0403668 -5.3602 23.5962 19.4616 0 0 0
443 37 3 0.0403668 -3.79528 23.9165 20.2552 0 0 0
444 37 3 0.0403668 -4.8562 25.3236 20.1945 0 0 0
445 38 1 -0.0639002 -0.754615 23.662 24.6671 0 0 0
446 38 2 -0.1737 -1.55204 24.8007 24.8047 0 0 0
447 38 2 -0.1737 -2.84957 24.7189 24.7221 0 0 0
448 38 1 -0.0639002 -3.70566 23.7236 25.2209 0 0 0
449 38 3 0.0403668 -0.499198 23.8555 23.6209 0 0 0
450 38 3 0.0403668 -1.27994 22.7126 24.806 0 0 0
451 38 3 0.0403668 0.140522 23.5375 25.2834 0 0 0
452 38 4 0.1165 -1.27851 25.8443 24.6855 0 0 0
453 38 4 0.1165 -3.28738 25.5929 24.2502 0 0 0
454 38 3 0.0403668 -3.71555 23.6904 26.3145 0 0 0
455 38 3 0.0403668 -4.52429 24.4488 25.196 0 0 0
456 38 3 0.0403668 -3.73728 22.7388 24.7453 0 0 0
457 39 1 -0.0639002 -2.06146 28.0666 0.149298 0 0 0
458 39 2 -0.1737 -2.73775 29.234 0.185696 0 0 0
459 39 2 -0.1737 -3.88302 29.7237 0.467776 0 0 0
460 39 1 -0.0639002 -4.9144 28.9653 0.801391 0 0 0
461 39 3 0.0403668 -2.09832 27.8413 27.6592 0 0 -1
462 39 3 0.0403668 -2.62603 27.3234 0.720006 0 0 0
463 39 3 0.0403668 -1.07257 27.8986 0.585698 0 0 0
464 39 4 0.1165 -2.10164 30.084 -0.0396494 0 0 0
465 39 4 0.1165 -4.04629 30.7357 0.110637 0 0 0
466 39 3 0.0403668 -4.8117 28.9 1.88876 0 0 0
467 39 3 0.0403668 -5.58295 29.7658 0.471573 0 0 0
468 39 3 0.0403668 -4.92501 28.015 0.259339 0 0 0
469 40 1 -0.0639002 -1.36746 27.8574 3.61176 0 0 0
470 40 2 -0.1737 -1.84184 29.1607 3.5181 0 0 0
471 40 2 -0.1737 -2.70971 29.9856 3.93949 0 0 0
472 40 1 -0.0639002 -4.02112 29.749 4.26398 0 0 0
473 40 3 0.0403668 -1.73286 27.5711 2.62103 0 0 0
474 40 3 0.0403668 -1.74591 27.2617 4.44776 0 0 0
475 40 3 0.0403668 -0.274592 27.818 3.58944 0 0 0
476 40 4 0.1165 -1.01935 29.8381 3.31165 0 0 0
477 40 4 0.1165 -2.20117 30.7913 4.45957 0 0 0
478 40 3 0.0403668 -4.07501 28.7312 4.6617 0 0 0
479 40 3 0.0403668 -3.97899 30.3758 5.15973 0 0 0
480 40 3 0.0403668 -4.67437 30.1071 3.4628 0 0 0
481 41 1 -0.0639002 -2.31091 28.822 7.59452 0 0 0
482 41 2 -0.1737 -2.67025 30.1332 7.74592 0 0 0
483 41 2 -0.1737 -3.77876 30.5783 8.28199 0 0 0
484 41 1 -0.0639002 -4.92009 29.8322 8.57769 0 0 0
485 41 3 0.0403668 -1.53082 28.8487 6.828 0 0 0
486 41 3 0.0403668 -3.03647 28.1289 7.15872 0 0 0
487 41 3 0.0403668 -1.92001 28.3366 8.49374 0 0 0
488 41 4 0.1165 -1.93617 30.7462 7.23271 0 0 0
489 41 4 0.1165 -3.80418 31.6248 8.569 0 0 0
490 41 3 0.0403668 -5.62439 30.0065 7.75889 0 0 0
491 41 3 0.0403668 -4.61458 28.795 8.74395 0 0 0
492 41 3 0.0403668 -5.24857 30.1096 9.58376 0 0 0
493 42 1 -0.0639002 -1.64586 27.8053 11.7639 0 0 0
494 42 2 -0.1737 -2.06019 29.1434 11.6889 0 0 0
495 42 2 -0.1737 -3.16865 29.649 11.9091 0 0 0
496 42 1 -0.0639002 -4.03379 29.4172 12.9481 0 0 0
497 42 3 0.0403668 -1.62634 27.2795 12.7232 0 0 0
498 42 3 0.0403668 -0.616814 27.9158 11.4098 0 0 0
499 42 3 0.0403668 -2.24469 27.2049 11.0726 0 0 0
500 42 4 0.1165 -1.37708 29.8557 11.2371 0 0 0
501 42 4 0.1165 -3.41652 30.5064 11.2912 0 0 0
502 42 3 0.0403668 -4.77275 30.2238 12.9529 0 0 0
503 42 3 0.0403668 -4.56958 28.6746 12.3496 0 0 0
504 42 3 0.0403668 -3.40889 29.2126 13.8224 0 0 0
505 43 1 -0.0639002 -1.53179 28.2334 17.3895 0 0 0
506 43 2 -0.1737 -2.12559 29.5557 17.2496 0 0 0
507 43 2 -0.1737 -3.32532 30.0125 17.4282 0 0 0
508 43 1 -0.0639002 -4.27282 29.409 18.3538 0 0 0
509 43 3 0.0403668 -1.49165 28.0076 18.4593 0 0 0
510 43 3 0.0403668 -0.465092 28.3874 17.2027 0 0 0
511 43 3 0.0403668 -2.02675 27.4427 16.8181 0 0 0
512 43 4 0.1165 -1.41036 30.2946 16.9025 0 0 0
513 43 4 0.1165 -3.45853 31.0851 17.3282 0 0 0
514 43 3 0.0403668 -3.70015 29.2278 19.2682 0 0 0
515 43 3 0.0403668 -4.89551 30.237 18.7048 0 0 0
516 43 3 0.0403668 -4.44177 28.5095 17.7544 0 0 0
517 44 1 -0.0639002 -0.840428 28.7037 21.2665 0 0 0
518 44 2 -0.1737 -1.59503 29.9128 21.7265 0 0 0
519 44 2 -0.1737 -2.73673 30.0482 22.2529 0 0 0
520 44 1 -0.0639002 -3.90714 29.1904 22.1496 0 0 0
521 44 3 0.0403668 -1.39269 27.7908 21.0248 0 0 0
522 44 3 0.0403668 -0.115255 28.4949 22.0586 0 0 0
523 44 3 0.0403668 -0.245705 28.8089 20.3543 0 0 0
524 44 4 0.1165 -0.947136 30.7696 21.5709 0 0 0
525 44 4 0.1165 -2.75408 30.8888 22.9395 0 0 0
526 44 3 0.0403668 -4.73531 29.7024 22.6483 0 0 0
527 44 3 0.0403668 -4.28382 28.8998 21.1644 0 0 0
528 44 3 0.0403668 -3.70585 28.2036 22.5768 0 0 0
529 45 1 -0.0639002 -1.75996 28.488 25.2247 0 0 0
530 45 2 -0.1737 -2.34091 29.5191 25.6884 0 0 0
531 45 2 -0.1737 -3.64528 29.7318 25.9622 0 0 0
532 45 1 -0.0639002 -4.56285 28.7658 25.767 0 0 0
533 45 3 0.0403668 -2.32802 27.5825 24.9921 0 0 0
534 45 3 0.0403668 -1.06592 28.3184 26.0532 0 0 0
535 45 3 0.0403668 -1.22294 28.6637 24.2878 0 0 0
536 45 4 0.1165 -1.93874 30.4786 25.3788 0 0 0
537 45 4 0.1165 -4.06845 30.7311 25.9855 0 0 0
538 45 3 0.0403668 -4.47125 28.2892 24.7864 0 0 0
539 45 3 0.0403668 -4.41641 28.1722 26.6744 0 0 0
540 45 3 0.0403668 -5.45067 29.3881 25.622 0 0 0
541 46 1 -0.0639002 -1.22847 33.3138 -0.149348 0 0 0
542 46 2 -0.1737 -1.70952 34.5241 0.156525 0 0 0
543 46 2 -0.1737 -2.88576 34.9076 0.679798 0 0 0
544 46 1 -0.0639002 -3.97741 34.2458 0.732615 0 0 0
545 46 3 0.0403668 -1.98807 32.5455 -0.320822 0 0 0
546 46 3 0.0403668 -0.507087 33.0308 0.622894 0 0 0
547 46 3 0.0403668 -0.691215 33.4382 27.4857 0 0 -1
548 46 4 0.1165 -1.26318 35.3959 -0.311404 0 0 0
549 46 4 0.1165 -3.20502 35.9443 0.71733 0 0 0
550 46 3 0.0403668 -4.02558 34.2 -0.359511 0 0 0
551 46 3 0.0403668 -3.58578 33.3064 1.13376 0 0 0
552 46 3 0.0403668 -4.59964 34.9657 1.27246 0 0 0
553 47 1 -0.0639002 -1.10263 33.3388 5.22212 0 0 0
554 47 2 -0.1737 -1.98644 34.2906 4.75747 0 0 0
555 47 2 -0.1737 -3.17539 34.5663 5.19092 0 0 0
556 47 1 -0.0639002 -3.40888 34.7014 6.52122 0 0 0
557 47 3 0.0403668 -1.52822 32.7737 6.05666 0 0 0
558 47 3 0.0403668 -0.0483588 33.6116 5.32447 0 0 0
559 47 3 0.0403668 -1.04938 32.6862 4.34556 0 0 0
560 47 4 0.1165 -1.82567 34.5852 3.72507 0 0 0
561 47 4 0.1165 -3.88299 34.8346 4.41277 0 0 0
562 47 3 0.0403668 -3.39763 35.7776 6.71774 0 0 0
563 47 3 0.0403668 -4.47349 34.5688 6.30803 0 0 0
564 47 3 0.0403668 -2.67676 34.1171 7.08622 0 0 0
565 48 1 -0.0639002 -1.63404 33.1259 10.4551 0 0 0
566 48 2 -0.1737 -2.82147 33.9623 10.5312 0 0 0
567 48 2 -0.1737 -3.37607 34.9541 11.1711 0 0 0
568 48 1 -0.0639002 -3.47177 35.0955 12.6666 0 0 0
569 48 3 0.0403668 -2.09903 32.1659 10.2123 0 0 0
570 48 3 0.0403668 -1.25876 32.7132 11.3962 0 0 0
571 48 3 0.0403668 -0.724102 33.5542 10.0247 0 0 0
572 48 4 0.1165 -2.94593 34.1305 9.46592 0 0 0
573 48 4 0.1165 -4.23937 35.4171 10.7038 0 0 0
574 48 3 0.0403668 -4.55769 35.1506 12.7856 0 0 0
575 48 3 0.0403668 -3.1298 34.0858 12.9121 0 0 0
576 48 3 0.0403668 -2.89807 35.9706 12.9857 0 0 0
577 49 1 -0.0639002 -1.23232 33.4333 17.769 0 0 0
578 49 2 -0.1737 -2.6377 34.0774 17.613 0 0 0
579 49 2 -0.1737 -3.15414 35.2147 18.0324 0 0 0
580 49 1 -0.0639002 -4.08338 35.0962 19.2035 0 0 0
581 49 3 0.0403668 -0.889439 33.6048 18.7937 0 0 0
582 49 3 0.0403668 -0.435528 33.6384 17.048 0 0 0
583 49 3 0.0403668 -1.39176 32.374 17.5468 0 0 0
584 49 4 0.1165 -2.44262 34.5023 16.6333 0 0 0
585 49 4 0.1165 -2.9608 36.1041 17.4409 0 0 0
586 49 3 0.0403668 -4.63925 36.0384 19.2005 0 0 0
587 49 3 0.0403668 -4.86613 34.4511 18.7938 0 0 0
588 49 3 0.0403668 -3.44016 34.8251 20.0459 0 0 0
589 50 1 -0.0639002 -2.72919 33.7087 23.9189 0 0 0
590 50 2 -0.1737 -2.37429 34.5371 24.9644 0 0 0
591 50 2 -0.1737 -3.05766 35.3577 25.5096 0 0 0
592 50 1 -0.0639002 -4.32195 35.7003 25.5407 0 0 0
593 50 3 0.0403668 -3.74537 33.304 23.9247 0 0 0
594 50 3 0.0403668 -2.20765 32.7538 24.0324 0 0 0
595 50 3 0.0403668 -2.4344 34.0444 22.9202 0 0 0
596 50 4 0.1165 -1.29591 34.4735 25.0689 0 0 0
597 50 4 0.1165 -2.55347 36.0949 26.1264 0 0 0
598 50 3 0.0403668 -4.70637 35.577 26.5576 0 0 0
599 50 3 0.0403668 -4.15708 36.781 25.4976 0 0 0
600 50 3 0.0403668 -4.71901 35.0557 24.7508 0 0 0
601 51 1 -0.0639002 5.53657 -2.30044 -0.22379 0 0 0
602 51 2 -0.1737 5.60337 -1.02241 0.161679 0 0 0
603 51 2 -0.1737 4.79877 -0.263375 0.697707 0 0 0
604 51 1 -0.0639002 3.44811 -0.448943 0.768265 0 0 0