ITEM: TIMESTEP
700
ITEM: NUMBER OF ATOMS
4800
ITEM: BOX BOUNDS xy xz yz pp pp pp
-6.6612899019507701e+00 5.3585653101951593e+01 0.0000000000000000e+00
-3.5808054636237330e+00 3.7115417463623714e+01 0.0000000000000000e+00
-1.2693623629943449e+00 2.8243677082994370e+01 0.0000000000000000e+00
ITEM: ATOMS id mol type q x y z ix iy iz
1 1 1 -0.0639002 -1.31996 -0.970729 -1.12372 0 0 0
2 1 2 -0.1737 -2.52928 -0.182263 28.1896 0 0 -1
3 1 2 -0.1737 -3.7348 -0.688469 -1.13406 0 0 0
4 1 1 -0.0639002 -4.91899 0.182164 -1.08191 0 0 0
5 1 3 0.0403668 -1.06144 -1.03365 -0.0626414 0 0 0
6 1 3 0.0403668 -0.361668 -0.646429 27.9732 0 0 -1
7 1 3 0.0403668 -1.57052 -1.96174 27.9998 0 0 -1
8 1 4 0.1165 -2.54364 0.87902 27.9627 0 0 -1
9 1 4 0.1165 -4.01354 -1.67534 -0.778509 0 0 0
10 1 3 0.0403668 -4.68753 1.24809 -1.16474 0 0 0
11 1 3 0.0403668 -5.59847 -0.0197129 27.5979 0 0 -1
12 1 3 0.0403668 -5.49671 -0.0754358 -0.189423 0 0 0
13 2 1 -0.0639002 -2.76258 -2.70817 4.54008 0 0 0
14 2 2 -0.1737 -2.55692 -1.20996 4.57059 0 0 0
15 2 2 -0.1737 -2.42518 -0.26495 3.56614 0 0 0
16 2 1 -0.0639002 -3.14331 -0.324639 2.26223 0 0 0
17 2 3 0.0403668 -2.54575 -3.05557 3.5257 0 0 0
18 2 3 0.0403668 -3.78194 -2.97008 4.83831 0 0 0
19 2 3 0.0403668 -1.9872 -3.09633 5.20699 0 0 0
20 2 4 0.1165 -2.1159 -0.968678 5.53254 0 0 0
21 2 4 0.1165 -1.91083 0.66221 3.79818 0 0 0
22 2 3 0.0403668 -2.51111 -0.139495 1.3889 0 0 0
23 2 3 0.0403668 -3.42321 -1.36663 2.08185 0 0 0
24 2 3 0.0403668 -4.05347 0.282175 2.25954 0 0 0
25 3 1 -0.0639002 -2.69663 -1.95179 9.56249 0 0 0
26 3 2 -0.1737 -2.99911 -0.587574 8.8951 0 0 0
27 3 2 -0.1737 -4.29369 -0.192282 8.28811 0 0 0
28 3 1 -0.0639002 -5.20484 -1.22504 7.71888 0 0 0
29 3 3 0.0403668 -2.00671 -2.5635 8.97387 0 0 0
30 3 3 0.0403668 -3.68568 -2.41194 9.6441 0 0 0
31 3 3 0.0403668 -2.16172 -1.71252 10.4862 0 0 0
32 3 4 0.1165 -2.32989 0.256872 9.02569 0 0 0
33 3 4 0.1165 -4.44516 0.869385 8.12094 0 0 0
34 3 3 0.0403668 -6.16953 -1.19756 8.2339 0 0 0
35 3 3 0.0403668 -5.44224 -0.986373 6.67803 0 0 0
36 3 3 0.0403668 -4.84295 -2.25733 7.72595 0 0 0
37 4 1 -0.0639002 -0.681036 -0.240065 13.0663 0 0 0
38 4 2 -0.1737 -1.96563 -1.01728 13.5212 0 0 0
39 4 2 -0.1737 -3.32879 -0.639277 13.7267 0 0 0
40 4 1 -0.0639002 -3.86504 0.821108 13.9068 0 0 0
41 4 3 0.0403668 -0.585298 -0.478469 12.003 0 0 0
42 4 3 0.0403668 0.250427 -0.700904 13.4078 0 0 0
43 4 3 0.0403668 -0.760567 0.842469 13.202 0 0 0
44 4 4 0.1165 -1.89246 -2.09884 13.5749 0 0 0
45 4 4 0.1165 -3.99836 -1.48371 13.8556 0 0 0
46 4 3 0.0403668 -4.87289 0.928068 13.4952 0 0 0
47 4 3 0.0403668 -3.80291 1.08767 14.9659 0 0 0
48 4 3 0.0403668 -3.15179 1.49454 13.4226 0 0 0
49 5 1 -0.0639002 -0.717944 -1.64893 17.7609 0 0 0
50 5 2 -0.1737 -1.92179 -0.853868 17.8686 0 0 0
51 5 2 -0.1737 -3.15256 -1.45261 18.0581 0 0 0
52 5 1 -0.0639002 -4.46498 -0.724273 18.095 0 0 0
53 5 3 0.0403668 -0.270719 -1.73576 18.7554 0 0 0
54 5 3 0.0403668 -0.0624522 -1.35282 16.9367 0 0 0
55 5 3 0.0403668 -1.04129 -2.66256 17.5066 0 0 0
56 5 4 0.1165 -1.69577 0.199864 17.7399 0 0 0
57 5 4 0.1165 -3.09016 -2.53614 18.0486 0 0 0
58 5 3 0.0403668 -5.28784 -1.07518 17.4654 0 0 0
59 5 3 0.0403668 -4.95368 -0.59602 19.0652 0 0 0
60 5 3 0.0403668 -4.17947 0.322462 17.9555 0 0 0
61 6 1 -0.0639002 -1.03969 -2.09867 23.1418 0 0 0
62 6 2 -0.1737 -1.98635 -1.75268 21.8718 0 0 0
63 6 2 -0.1737 -3.27421 -1.35062 22.0116 0 0 0
64 6 1 -0.0639002 -4.07636 -1.60063 23.3482 0 0 0
65 6 3 0.0403668 -1.04492 -1.14829 23.6835 0 0 0
66 6 3 0.0403668 -0.000710299 -2.17225 22.8076 0 0 0
67 6 3 0.0403668 -1.39759 -2.93046 23.7556 0 0 0
68 6 4 0.1165 -1.63885 -1.80001 20.8446 0 0 0
69 6 4 0.1165 -3.85806 -1.09011 21.1345 0 0 0
70 6 3 0.0403668 -3.74475 -2.54377 23.7922 0 0 0
71 6 3 0.0403668 -3.8698 -0.797625 24.0618 0 0 0
72 6 3 0.0403668 -5.15475 -1.68102 23.1832 0 0 0
73 7 1 -0.0639002 -0.933471 3.19027 2.01949 0 0 0
74 7 2 -0.1737 -1.69046 3.77816 0.836955 0 0 0
75 7 2 -0.1737 -3.06648 3.78696 0.658008 0 0 0
76 7 1 -0.0639002 -4.02775 3.93978 1.811 0 0 0
77 7 3 0.0403668 -0.36523 2.30365 1.72343 0 0 0
78 7 3 0.0403668 -1.7315 2.92746 2.72 0 0 0
79 7 3 0.0403668 -0.359849 4.01654 2.44944 0 0 0
80 7 4 0.1165 -1.12933 3.63757 -0.0814239 0 0 0
81 7 4 0.1165 -3.38831 3.86174 -0.37587 0 0 0
82 7 3 0.0403668 -4.33375 2.9346 2.11536 0 0 0
83 7 3 0.0403668 -3.56414 4.49208 2.63361 0 0 0
84 7 3 0.0403668 -4.97897 4.40462 1.53582 0 0 0
85 8 1 -0.0639002 -1.19582 4.14361 5.66246 0 0 0
86 8 2 -0.1737 -2.26434 4.94989 5.01239 0 0 0
87 8 2 -0.1737 -3.59344 5.04364 5.50548 0 0 0
88 8 1 -0.0639002 -4.19684 4.1454 6.53764 0 0 0
89 8 3 0.0403668 -0.267732 4.72094 5.70687 0 0 0
90 8 3 0.0403668 -0.975223 3.30165 4.99982 0 0 0
91 8 3 0.0403668 -1.36093 3.88844 6.71332 0 0 0
92 8 4 0.1165 -2.04182 5.53109 4.12315 0 0 0
93 8 4 0.1165 -4.26576 5.69555 4.95681 0 0 0
94 8 3 0.0403668 -3.46149 3.50581 7.03445 0 0 0
95 8 3 0.0403668 -4.74646 4.6802 7.31774 0 0 0
96 8 3 0.0403668 -4.88733 3.51916 5.96521 0 0 0
97 9 1 -0.0639002 -1.33438 3.49219 10.6178 0 0 0
98 9 2 -0.1737 -2.75087 2.98131 10.706 0 0 0
99 9 2 -0.1737 -3.93348 3.67009 10.4923 0 0 0
100 9 1 -0.0639002 -5.28972 3.16595 10.835 0 0 0
101 9 3 0.0403668 -1.00579 3.15762 9.62952 0 0 0
102 9 3 0.0403668 -0.583958 3.26026 11.3792 0 0 0
103 9 3 0.0403668 -1.48887 4.56066 10.4414 0 0 0
104 9 4 0.1165 -2.71363 1.91052 10.8793 0 0 0
105 9 4 0.1165 -3.8173 4.67771 10.106 0 0 0
106 9 3 0.0403668 -6.02182 3.19006 10.0225 0 0 0
107 9 3 0.0403668 -5.33623 2.09134 11.0342 0 0 0
108 9 3 0.0403668 -5.64153 3.74155 11.6962 0 0 0
109 10 1 -0.0639002 -0.955603 3.63315 15.7294 0 0 0
110 10 2 -0.1737 -2.0284 4.17242 16.556 0 0 0
111 10 2 -0.1737 -3.33439 3.88891 16.3201 0 0 0
112 10 1 -0.0639002 -4.54808 4.21836 17.193 0 0 0
113 10 3 0.0403668 -0.309098 4.35011 15.2149 0 0 0
114 10 3 0.0403668 -1.3667 2.8313 15.1091 0 0 0
115 10 3 0.0403668 -0.343815 3.24226 16.5476 0 0 0
116 10 4 0.1165 -1.72813 5.00193 17.1883 0 0 0
117 10 4 0.1165 -3.52464 3.23009 15.4788 0 0 0
118 10 3 0.0403668 -4.29769 4.75722 18.1114 0 0 0
119 10 3 0.0403668 -5.26582 4.9295 16.7737 0 0 0
120 10 3 0.0403668 -5.18299 3.34484 17.3676 0 0 0
121 11 1 -0.0639002 -2.85904 2.41144 20.6116 0 0 0
122 11 2 -0.1737 -2.84602 3.63933 21.5602 0 0 0
123 11 2 -0.1737 -3.80553 4.70205 21.5657 0 0 0
124 11 1 -0.0639002 -5.14694 4.72232 20.829 0 0 0
125 11 3 0.0403668 -3.90906 2.11043 20.6705 0 0 0
126 11 3 0.0403668 -2.1711 1.6519 20.9943 0 0 0
127 11 3 0.0403668 -2.53836 2.65827 19.5953 0 0 0
128 11 4 0.1165 -1.96366 3.71164 22.1881 0 0 0
129 11 4 0.1165 -3.51451 5.64148 22.0249 0 0 0
130 11 3 0.0403668 -5.20828 5.6169 20.2024 0 0 0
131 11 3 0.0403668 -5.05428 3.91407 20.0977 0 0 0
132 11 3 0.0403668 -6.09003 4.74686 21.3827 0 0 0
133 12 1 -0.0639002 -1.32423 2.67265 26.0339 0 0 0
134 12 2 -0.1737 -2.09717 3.88585 25.4936 0 0 0
135 12 2 -0.1737 -3.41062 3.93653 24.9738 0 0 0
136 12 1 -0.0639002 -4.47251 3.00285 25.4167 0 0 0
137 12 3 0.0403668 -1.64611 1.70849 25.6296 0 0 0
138 12 3 0.0403668 -1.47171 2.60823 27.1159 0 0 0
139 12 3 0.0403668 -0.283132 2.74412 25.7058 0 0 0
140 12 4 0.1165 -1.47034 4.74719 25.2858 0 0 0
141 12 4 0.1165 -3.64629 4.80779 24.3709 0 0 0
142 12 3 0.0403668 -4.5638 2.13012 24.7635 0 0 0
143 12 3 0.0403668 -4.26401 2.64465 26.4291 0 0 0
144 12 3 0.0403668 -5.50519 3.34232 25.2944 0 0 0
145 13 1 -0.0639002 -1.7973 8.63372 3.51547 0 0 0
146 13 2 -0.1737 -3.02705 8.34902 2.77251 0 0 0
147 13 2 -0.1737 -4.29197 8.59097 3.13688 0 0 0
148 13 1 -0.0639002 -4.75952 9.33041 4.29736 0 0 0
149 13 3 0.0403668 -1.95472 9.03183 4.52216 0 0 0
150 13 3 0.0403668 -1.32589 9.31544 2.80155 0 0 0
151 13 3 0.0403668 -1.2268 7.70042 3.52554 0 0 0
152 13 4 0.1165 -2.76488 7.78474 1.88318 0 0 0
153 13 4 0.1165 -5.09011 8.21912 2.50226 0 0 0
154 13 3 0.0403668 -5.68568 8.88252 4.66918 0 0 0
155 13 3 0.0403668 -4.0527 9.25498 5.12885 0 0 0
156 13 3 0.0403668 -4.90525 10.3882 4.05975 0 0 0
157 14 1 -0.0639002 -2.1403 8.07812 7.89694 0 0 0
158 14 2 -0.1737 -3.20057 7.67035 8.945 0 0 0
159 14 2 -0.1737 -4.40354 8.3565 9.11234 0 0 0
160 14 1 -0.0639002 -4.92151 9.39627 8.19917 0 0 0
161 14 3 0.0403668 -2.20098 9.13961 7.63971 0 0 0
162 14 3 0.0403668 -2.39761 7.489 7.01184 0 0 0
163 14 3 0.0403668 -1.13755 7.78804 8.224 0 0 0
164 14 4 0.1165 -3.10782 6.76935 9.54301 0 0 0
165 14 4 0.1165 -4.95646 7.98849 9.97076 0 0 0
166 14 3 0.0403668 -5.91977 9.1768 7.80937 0 0 0
167 14 3 0.0403668 -4.90558 10.3267 8.7743 0 0 0
168 14 3 0.0403668 -4.27684 9.36455 7.31596 0 0 0
169 15 1 -0.0639002 -2.35187 7.45156 13.6033 0 0 0
170 15 2 -0.1737 -3.21417 8.4686 12.7999 0 0 0
171 15 2 -0.1737 -4.58699 8.23069 12.547 0 0 0
172 15 1 -0.0639002 -5.43223 7.22122 13.3009 0 0 0
173 15 3 0.0403668 -2.7453 7.46444 14.6239 0 0 0
174 15 3 0.0403668 -1.34299 7.8547 13.7308 0 0 0
175 15 3 0.0403668 -2.41981 6.50458 13.0599 0 0 0
176 15 4 0.1165 -2.63603 9.01924 12.0646 0 0 0
177 15 4 0.1165 -5.14184 8.88352 11.8807 0 0 0
178 15 3 0.0403668 -4.97953 6.83484 14.2187 0 0 0
179 15 3 0.0403668 -6.25881 7.77708 13.753 0 0 0
180 15 3 0.0403668 -5.70594 6.37439 12.6648 0 0 0
181 16 1 -0.0639002 -2.30065 7.03762 19.323 0 0 0
182 16 2 -0.1737 -1.69528 7.76251 18.0948 0 0 0
183 16 2 -0.1737 -2.40208 8.46546 17.0749 0 0 0
184 16 1 -0.0639002 -3.96137 8.77449 17.0162 0 0 0
185 16 3 0.0403668 -2.32088 5.97242 19.0748 0 0 0
186 16 3 0.0403668 -3.28449 7.47301 19.5208 0 0 0
187 16 3 0.0403668 -1.67 7.09312 20.2151 0 0 0
188 16 4 0.1165 -0.613084 7.68354 18.0705 0 0 0
189 16 4 0.1165 -1.80632 8.91457 16.2866 0 0 0
190 16 3 0.0403668 -4.57517 7.87546 16.9084 0 0 0
191 16 3 0.0403668 -4.31276 9.35228 17.8761 0 0 0
192 16 3 0.0403668 -4.30569 9.27488 16.1064 0 0 0
193 17 1 -0.0639002 -1.56422 7.7968 24.0128 0 0 0
194 17 2 -0.1737 -2.28234 9.05112 24.0919 0 0 0
195 17 2 -0.1737 -3.16941 9.67972 23.2898 0 0 0
196 17 1 -0.0639002 -3.54507 9.17017 21.9987 0 0 0
197 17 3 0.0403668 -2.20044 6.96691 23.6916 0 0 0
198 17 3 0.0403668 -1.2057 7.46615 24.992 0 0 0
199 17 3 0.0403668 -0.66998 7.99927 23.4161 0 0 0
200 17 4 0.1165 -2.12735 9.521 25.0579 0 0 0
201 17 4 0.1165 -3.61013 10.5392 23.7848 0 0 0
202 17 3 0.0403668 -4.60897 9.38032 21.8553 0 0 0
203 17 3 0.0403668 -2.90882 9.46381 21.1587 0 0 0
204 17 3 0.0403668 -3.50353 8.0798 21.9214 0 0 0
205 18 1 -0.0639002 -1.05183 7.73391 -0.887671 0 0 1
206 18 2 -0.1737 -1.87112 9.02466 -0.844694 0 0 1
207 18 2 -0.1737 -3.17048 9.2427 28.2572 0 0 0
208 18 1 -0.0639002 -3.91984 8.07077 27.539 0 0 0
209 18 3 0.0403668 -1.13282 7.25851 0.0942222 0 0 1
210 18 3 0.0403668 -0.0231156 8.10516 -0.864651 0 0 1
211 18 3 0.0403668 -1.22294 7.08439 27.7619 0 0 0
212 18 4 0.1165 -1.28088 9.87227 -0.511239 0 0 1
213 18 4 0.1165 -3.66408 10.197 28.4112 0 0 0
214 18 3 0.0403668 -4.86697 7.76183 27.9908 0 0 0
215 18 3 0.0403668 -4.15461 8.26465 26.4883 0 0 0
216 18 3 0.0403668 -3.24842 7.20763 27.5675 0 0 0
217 19 1 -0.0639002 -3.63869 13.0628 -0.179231 0 0 0
218 19 2 -0.1737 -3.85509 14.5675 -0.309105 0 0 0
219 19 2 -0.1737 -4.95999 15.3399 -0.272153 0 0 0
220 19 1 -0.0639002 -6.28797 14.9439 0.155669 0 0 0
221 19 3 0.0403668 -4.05228 12.7096 0.769886 0 0 0
222 19 3 0.0403668 -2.56077 12.8951 -0.260237 0 0 0
223 19 3 0.0403668 -4.19955 12.5615 -0.973443 0 0 0
224 19 4 0.1165 -2.96221 15.0419 -0.703718 0 0 0
225 19 4 0.1165 -4.77528 16.3512 -0.620148 0 0 0
226 19 3 0.0403668 -6.24431 13.8526 0.0935925 0 0 0
227 19 3 0.0403668 -6.46443 15.2529 1.19011 0 0 0
228 19 3 0.0403668 53.1891 15.2956 -0.537306 -1 0 0
229 20 1 -0.0639002 -2.84593 12.3336 3.72728 0 0 0
230 20 2 -0.1737 -1.95243 13.464 4.00119 0 0 0
231 20 2 -0.1737 -2.19498 14.8606 3.74972 0 0 0
232 20 1 -0.0639002 -3.47418 15.3021 3.12577 0 0 0
233 20 3 0.0403668 -2.76709 12.1495 2.65184 0 0 0
234 20 3 0.0403668 -3.83574 12.4089 4.18687 0 0 0
235 20 3 0.0403668 -2.46677 11.3955 4.14305 0 0 0
236 20 4 0.1165 -0.938675 13.2578 4.32948 0 0 0
237 20 4 0.1165 -1.40954 15.5763 3.97056 0 0 0
238 20 3 0.0403668 -3.41369 15.5452 2.06091 0 0 0
239 20 3 0.0403668 -4.31095 14.6122 3.26874 0 0 0
240 20 3 0.0403668 -3.71843 16.2459 3.62188 0 0 0
241 21 1 -0.0639002 -2.56117 13.9587 7.61833 0 0 0
242 21 2 -0.1737 -3.77096 14.6688 7.04545 0 0 0
243 21 2 -0.1737 -5.04431 14.0972 6.9363 0 0 0
244 21 1 -0.0639002 -5.29641 12.7065 7.10164 0 0 0
245 21 3 0.0403668 -1.72574 14.6502 7.76137 0 0 0
246 21 3 0.0403668 -2.26429 13.0072 7.16761 0 0 0
247 21 3 0.0403668 -2.76085 13.6013 8.63277 0 0 0
248 21 4 0.1165 -3.68151 15.6459 6.58141 0 0 0
249 21 4 0.1165 -5.82964 14.7371 6.54671 0 0 0
250 21 3 0.0403668 -5.95781 12.4423 7.93194 0 0 0
251 21 3 0.0403668 -5.65792 12.2624 6.16959 0 0 0
252 21 3 0.0403668 -4.3812 12.1922 7.40904 0 0 0
253 22 1 -0.0639002 -1.90781 12.5084 11.3398 0 0 0
254 22 2 -0.1737 -1.63704 14.0051 11.0543 0 0 0
255 22 2 -0.1737 -2.78383 14.9277 10.877 0 0 0
256 22 1 -0.0639002 -4.22605 14.4017 10.8398 0 0 0
257 22 3 0.0403668 -2.61729 12.0133 10.6704 0 0 0
258 22 3 0.0403668 -2.37859 12.305 12.3061 0 0 0
259 22 3 0.0403668 -1.00277 11.9004 11.251 0 0 0
260 22 4 0.1165 -0.61539 14.3677 11.002 0 0 0
261 22 4 0.1165 -2.59697 15.9697 10.6373 0 0 0
262 22 3 0.0403668 -4.84214 14.7925 11.6548 0 0 0
263 22 3 0.0403668 -4.73948 14.532 9.88266 0 0 0
264 22 3 0.0403668 -4.4138 13.3527 11.0866 0 0 0
265 23 1 -0.0639002 -5.12758 12.7769 14.412 0 0 0
266 23 2 -0.1737 -4.26497 13.9348 14.8862 0 0 0
267 23 2 -0.1737 -4.64611 15.3182 14.7921 0 0 0
268 23 1 -0.0639002 -6.02894 15.917 14.3568 0 0 0
269 23 3 0.0403668 -4.60983 11.8614 14.7128 0 0 0
270 23 3 0.0403668 -5.24823 12.9678 13.3416 0 0 0
271 23 3 0.0403668 -6.04977 12.8754 14.992 0 0 0
272 23 4 0.1165 -3.23268 13.6173 14.994 0 0 0
273 23 4 0.1165 -3.8671 16.0659 14.9023 0 0 0
274 23 3 0.0403668 -6.55584 16.3076 15.2323 0 0 0
275 23 3 0.0403668 -5.88768 16.7307 13.6393 0 0 0
276 23 3 0.0403668 -6.62055 15.1736 13.8146 0 0 0
277 24 1 -0.0639002 -0.313046 12.3633 17.7559 0 0 0
278 24 2 -0.1737 -0.857844 13.7247 17.8829 0 0 0
279 24 2 -0.1737 -2.18543 14.0714 18.1721 0 0 0
280 24 1 -0.0639002 -3.2334 13.0256 18.3117 0 0 0
281 24 3 0.0403668 0.734988 12.432 17.4501 0 0 0
282 24 3 0.0403668 -0.853758 11.9426 16.9031 0 0 0
283 24 3 0.0403668 -0.503194 11.8597 18.7082 0 0 0
284 24 4 0.1165 -0.174984 14.5239 17.6125 0 0 0
285 24 4 0.1165 -2.46934 15.1187 18.1928 0 0 0
286 24 3 0.0403668 -4.03737 13.6783 17.9592 0 0 0
287 24 3 0.0403668 -3.20622 12.0849 17.7539 0 0 0
288 24 3 0.0403668 -3.37719 12.7427 19.3586 0 0 0
289 25 1 -0.0639002 -2.02673 14.6314 22.0858 0 0 0
290 25 2 -0.1737 -2.93953 15.7632 21.5432 0 0 0
291 25 2 -0.1737 -4.31657 15.7599 21.5347 0 0 0
292 25 1 -0.0639002 -4.99994 14.3956 21.7359 0 0 0
293 25 3 0.0403668 -2.41564 13.6682 21.7429 0 0 0
294 25 3 0.0403668 -2.05747 14.6669 23.1787 0 0 0
295 25 3 0.0403668 -0.96533 14.6273 21.8212 0 0 0
296 25 4 0.1165 -2.43031 16.6554 21.1929 0 0 0
297 25 4 0.1165 -4.83862 16.5258 20.9701 0 0 0
298 25 3 0.0403668 -4.48119 13.6307 21.1507 0 0 0
299 25 3 0.0403668 -4.86352 14.117 22.7849 0 0 0
300 25 3 0.0403668 -6.05926 14.3602 21.4653 0 0 0
301 26 1 -0.0639002 -0.408241 11.8885 25.7008 0 0 0
302 26 2 -0.1737 -0.552714 13.3206 26.1759 0 0 0
303 26 2 -0.1737 -1.73047 13.9722 26.2962 0 0 0
304 26 1 -0.0639002 -2.97757 13.3457 25.791 0 0 0
305 26 3 0.0403668 0.443212 11.8751 25.0142 0 0 0
306 26 3 0.0403668 -1.25377 11.5104 25.1188 0 0 0
307 26 3 0.0403668 -0.0427677 11.251 26.5112 0 0 0
308 26 4 0.1165 0.335067 13.8037 26.5715 0 0 0
309 26 4 0.1165 -1.54437 14.9426 26.7454 0 0 0
310 26 3 0.0403668 -2.89503 13.3098 24.7007 0 0 0
311 26 3 0.0403668 -3.31071 12.3947 26.2167 0 0 0
312 26 3 0.0403668 -3.89566 13.9141 25.9658 0 0 0
313 27 1 -0.0639002 -1.01092 18.6069 3.10201 0 0 0
314 27 2 -0.1737 -1.9387 19.2994 2.15613 0 0 0
315 27 2 -0.1737 -3.21299 19.7914 2.52771 0 0 0
316 27 1 -0.0639002 -3.7892 19.8462 3.86764 0 0 0
317 27 3 0.0403668 0.0461525 18.8451 2.95216 0 0 0
318 27 3 0.0403668 -0.864945 17.598 2.70507 0 0 0
319 27 3 0.0403668 -1.18567 18.605 4.18189 0 0 0
320 27 4 0.1165 -1.76773 19.5227 1.10782 0 0 0
321 27 4 0.1165 -3.67232 20.4395 1.78806 0 0 0
322 27 3 0.0403668 -3.37636 20.567 4.57953 0 0 0
323 27 3 0.0403668 -4.85603 20.0513 3.73941 0 0 0
324 27 3 0.0403668 -3.62765 18.8752 4.34476 0 0 0
325 28 1 -0.0639002 -1.06228 19.5749 7.57253 0 0 0
326 28 2 -0.1737 -2.06287 18.4298 7.26292 0 0 0
327 28 2 -0.1737 -3.50764 18.5769 7.35956 0 0 0
328 28 1 -0.0639002 -4.08247 19.7393 8.1871 0 0 0
329 28 3 0.0403668 -0.0146294 19.3924 7.31613 0 0 0
330 28 3 0.0403668 -1.0772 19.744 8.65321 0 0 0
331 28 3 0.0403668 -1.30475 20.5257 7.08904 0 0 0
332 28 4 0.1165 -1.59319 17.4836 7.01385 0 0 0
333 28 4 0.1165 -4.20575 17.7805 7.12211 0 0 0
334 28 3 0.0403668 -4.7169 20.3521 7.54006 0 0 0
335 28 3 0.0403668 -4.75701 19.3748 8.96734 0 0 0
336 28 3 0.0403668 -3.29066 20.4143 8.52481 0 0 0
337 29 1 -0.0639002 -2.22586 20.3988 11.914 0 0 0
338 29 2 -0.1737 -2.37519 20.1296 13.408 0 0 0
339 29 2 -0.1737 -3.67494 20.0345 13.9682 0 0 0
340 29 1 -0.0639002 -4.94331 19.7979 13.1742 0 0 0
341 29 3 0.0403668 -1.57001 19.6229 11.5085 0 0 0
342 29 3 0.0403668 -1.82874 21.4173 11.8731 0 0 0
343 29 3 0.0403668 -3.1503 20.4764 11.3344 0 0 0
344 29 4 0.1165 -1.48196 20.1804 14.0224 0 0 0
345 29 4 0.1165 -3.82161 20.0054 15.0433 0 0 0
346 29 3 0.0403668 -5.40312 18.8173 13.3277 0 0 0
347 29 3 0.0403668 -5.70583 20.5219 13.4759 0 0 0
348 29 3 0.0403668 -4.89003 20.1419 12.1372 0 0 0
349 30 1 -0.0639002 -1.50964 19.113 17.5093 0 0 0
350 30 2 -0.1737 -2.77821 19.738 17.992 0 0 0
351 30 2 -0.1737 -4.05951 19.1485 18.0653 0 0 0
352 30 1 -0.0639002 -4.29894 17.6823 17.829 0 0 0
353 30 3 0.0403668 -1.53103 19.3241 16.4362 0 0 0
354 30 3 0.0403668 -1.45977 18.0462 17.746 0 0 0
355 30 3 0.0403668 -0.680315 19.662 17.9648 0 0 0
356 30 4 0.1165 -2.53324 20.7375 18.3369 0 0 0
357 30 4 0.1165 -4.89183 19.7938 18.3274 0 0 0
358 30 3 0.0403668 -5.03168 17.3014 18.5464 0 0 0
359 30 3 0.0403668 -4.77134 17.4881 16.8617 0 0 0
360 30 3 0.0403668 -3.37874 17.1013 17.9401 0 0 0
361 31 1 -0.0639002 -1.8243 19.2887 22.9781 0 0 0
362 31 2 -0.1737 -2.39913 20.2773 22.0026 0 0 0
363 31 2 -0.1737 -3.74368 20.6047 21.7597 0 0 0
364 31 1 -0.0639002 -4.91422 20.3675 22.6951 0 0 0
365 31 3 0.0403668 -2.7427 18.8501 23.3791 0 0 0
366 31 3 0.0403668 -1.25408 19.8606 23.7159 0 0 0
367 31 3 0.0403668 -1.13825 18.5599 22.5368 0 0 0
368 31 4 0.1165 -1.67457 20.6891 21.3073 0 0 0
369 31 4 0.1165 -4.06995 20.9759 20.7934 0 0 0
370 31 3 0.0403668 -5.57644 21.179 22.3796 0 0 0
371 31 3 0.0403668 -5.47846 19.4439 22.536 0 0 0
372 31 3 0.0403668 -4.47738 20.4937 23.6901 0 0 0
373 32 1 -0.0639002 -0.806449 18.6784 26.8547 0 0 0
374 32 2 -0.1737 -0.657094 20.1772 26.828 0 0 0
375 32 2 -0.1737 -1.69639 21.0159 26.3877 0 0 0
376 32 1 -0.0639002 -3.08691 20.4825 26.6281 0 0 0
377 32 3 0.0403668 -0.980277 18.2737 27.856 0 0 0
378 32 3 0.0403668 0.101125 18.217 26.4546 0 0 0
379 32 3 0.0403668 -1.49558 18.2883 26.1 0 0 0
380 32 4 0.1165 0.327217 20.6181 26.9493 0 0 0
381 32 4 0.1165 -1.59142 22.0248 26.0014 0 0 0
382 32 3 0.0403668 -3.82576 21.2892 26.6295 0 0 0
383 32 3 0.0403668 -3.47139 19.8027 25.8621 0 0 0
384 32 3 0.0403668 -3.12082 20.1219 27.6603 0 0 0
385 33 1 -0.0639002 -0.061266 23.9738 -0.890331 0 0 0
386 33 2 -0.1737 -1.29753 24.5804 28.0857 0 0 -1
387 33 2 -0.1737 -2.52379 24.3176 -0.965256 0 0 0
388 33 1 -0.0639002 -2.80148 23.3613 0.0546645 0 0 0
389 33 3 0.0403668 0.55757 23.8415 27.7304 0 0 -1
390 33 3 0.0403668 -0.251347 22.9669 -0.507419 0 0 0
391 33 3 0.0403668 0.302937 24.7316 -0.190461 0 0 0
392 33 4 0.1165 -1.04833 25.1946 27.2262 0 0 -1
393 33 4 0.1165 -3.33026 24.7981 28.003 0 0 -1
394 33 3 0.0403668 -2.13294 23.5553 0.89852 0 0 0
395 33 3 0.0403668 -3.70848 23.4856 0.653445 0 0 0
396 33 3 0.0403668 -2.62917 22.3647 -0.362115 0 0 0
397 34 1 -0.0639002 -1.79493 22.7066 5.48581 0 0 0
398 34 2 -0.1737 -1.90364 23.8566 4.56137 0 0 0
399 34 2 -0.1737 -3.06984 24.242 3.84792 0 0 0
400 34 1 -0.0639002 -4.35717 23.6 4.12371 0 0 0
401 34 3 0.0403668 -1.20734 21.8947 5.04733 0 0 0
402 34 3 0.0403668 -2.7979 22.4194 5.81475 0 0 0
403 34 3 0.0403668 -1.16681 22.8655 6.36722 0 0 0
404 34 4 0.1165 -0.977138 24.299 4.20936 0 0 0
405 34 4 0.1165 -2.99399 25.1421 3.24617 0 0 0
406 34 3 0.0403668 -5.1853 24.199 3.73376 0 0 0
407 34 3 0.0403668 -4.51592 22.6034 3.70161 0 0 0
408 34 3 0.0403668 -4.56044 23.5409 5.19696 0 0 0
409 35 1 -0.0639002 -2.13046 25.2197 8.29058 0 0 0
410 35 2 -0.1737 -3.14265 25.9542 9.16516 0 0 0
411 35 2 -0.1737 -4.37385 25.3871 9.39805 0 0 0
412 35 1 -0.0639002 -4.45571 23.9652 8.98128 0 0 0
413 35 3 0.0403668 -1.25625 25.8429 8.08106 0 0 0
414 35 3 0.0403668 -2.58918 24.9191 7.34404 0 0 0
415 35 3 0.0403668 -1.72711 24.3923 8.88175 0 0 0
416 35 4 0.1165 -3.03369 27.0153 9.3655 0 0 0
417 35 4 0.1165 -5.18133 25.9204 9.88961 0 0 0
418 35 3 0.0403668 -3.62614 23.3308 9.30673 0 0 0
419 35 3 0.0403668 -5.40377 23.5375 9.32015 0 0 0
420 35 3 0.0403668 -4.4894 23.8522 7.89372 0 0 0
421 36 1 -0.0639002 -0.723869 24.6069 12.8577 0 0 0
422 36 2 -0.1737 -2.08282 24.21 12.2233 0 0 0
423 36 2 -0.1737 -3.35563 24.4551 12.8468 0 0 0
424 36 1 -0.0639002 -3.59681 24.6415 14.3882 0 0 0
425 36 3 0.0403668 -0.759299 25.1357 13.8147 0 0 0
426 36 3 0.0403668 -0.224729 25.3124 12.187 0 0 0
427 36 3 0.0403668 -0.268657 23.6452 13.1119 0 0 0
428 36 4 0.1165 -1.97804 23.8936 11.1903 0 0 0
429 36 4 0.1165 -4.20184 24.2859 12.1886 0 0 0
430 36 3 0.0403668 -4.62488 24.3314 14.5967 0 0 0
431 36 3 0.0403668 -3.11321 23.9067 15.0384 0 0 0
432 36 3 0.0403668 -3.48203 25.6741 14.7307 0 0 0
433 37 1 -0.0639002 -3.24707 23.8333 18.2627 0 0 0
434 37 2 -0.1737 -4.57924 24.7196 18.1787 0 0 0
435 37 2 -0.1737 -5.22424 25.383 19.242 0 0 0
436 37 1 -0.0639002 -4.70039 25.5314 20.6681 0 0 0
437 37 3 0.0403668 -3.02968 23.5001 17.2437 0 0 0
438 37 3 0.0403668 -3.29333 22.9218 18.8658 0 0 0
439 37 3 0.0403668 -2.48398 24.5328 18.6164 0 0 0
440 37 4 0.1165 -5.1491 24.7837 17.2572 0 0 0
441 37 4 0.1165 -6.1265 25.9013 18.9333 0 0 0
442 37 3 0.0403668 -5.12871 24.773 21.3299 0 0 0
443 37 3 0.0403668 -3.63373 25.2889 20.6705 0 0 0
444 37 3 0.0403668 -4.7907 26.543 21.0746 0 0 0
445 38 1 -0.0639002 -0.817705 23.4436 23.4534 0 0 0
446 38 2 -0.1737 -1.54364 24.6854 22.847 0 0 0
447 38 2 -0.1737 -2.59306 25.4276 23.4984 0 0 0
448 38 1 -0.0639002 -3.4141 24.7939 24.7093 0 0 0
449 38 3 0.0403668 -0.253591 23.6536 24.3668 0 0 0
450 38 3 0.0403668 -0.170712 23.0273 22.6757 0 0 0
451 38 3 0.0403668 -1.58272 22.6715 23.5763 0 0 0
452 38 4 0.1165 -1.20173 24.9922 21.8636 0 0 0
453 38 4 0.1165 -2.82059 26.4314 23.1542 0 0 0
454 38 3 0.0403668 -2.79273 24.7381 25.6079 0 0 0
455 38 3 0.0403668 -4.36839 25.2851 24.9206 0 0 0
456 38 3 0.0403668 -3.70792 23.7699 24.4606 0 0 0
457 39 1 -0.0639002 -2.84867 27.8807 0.165602 0 0 0
458 39 2 -0.1737 -3.34675 29.1971 -0.239731 0 0 0
459 39 2 -0.1737 -4.53038 29.7438 0.10772 0 0 0
460 39 1 -0.0639002 -5.63625 29.0337 0.671218 0 0 0
461 39 3 0.0403668 -3.67658 27.1739 0.0579432 0 0 0
462 39 3 0.0403668 -2.38519 27.993 1.15011 0 0 0
463 39 3 0.0403668 -2.15858 27.5582 -0.619532 0 0 0
464 39 4 0.1165 -2.53605 29.8858 -0.455376 0 0 0
465 39 4 0.1165 -4.58073 30.8226 -0.000373706 0 0 0
466 39 3 0.0403668 -5.57307 29.3228 1.72437 0 0 0
467 39 3 0.0403668 -6.62869 29.2868 0.286948 0 0 0
468 39 3 0.0403668 -5.56693 27.945 0.590692 0 0 0
469 40 1 -0.0639002 -0.799028 28.2074 5.39488 0 0 0
470 40 2 -0.1737 -0.875881 29.5953 4.59396 0 0 0
471 40 2 -0.1737 -1.90995 30.1278 3.77218 0 0 0
472 40 1 -0.0639002 -3.2995 29.5099 3.81583 0 0 0
473 40 3 0.0403668 -0.719729 27.392 4.66997 0 0 0
474 40 3 0.0403668 -1.64965 28.2361 6.08209 0 0 0
475 40 3 0.0403668 0.119732 28.0903 5.97695 0 0 0
476 40 4 0.1165 0.0643284 30.1366 4.56212 0 0 0
477 40 4 0.1165 -1.81408 31.044 3.19814 0 0 0
478 40 3 0.0403668 -4.00138 30.3069 4.0781 0 0 0
479 40 3 0.0403668 -3.72377 29.2116 2.85266 0 0 0
480 40 3 0.0403668 -3.40718 28.6959 4.53866 0 0 0
481 41 1 -0.0639002 -2.27019 30.2075 8.81388 0 0 0
482 41 2 -0.1737 -3.30239 30.7265 7.91738 0 0 0
483 41 2 -0.1737 -4.68058 30.6145 8.13184 0 0 0
484 41 1 -0.0639002 -5.3834 29.8125 9.17746 0 0 0
485 41 3 0.0403668 -2.51362 30.4065 9.86165 0 0 0
486 41 3 0.0403668 -1.25814 30.5736 8.61801 0 0 0
487 41 3 0.0403668 -2.2169 29.1409 8.57698 0 0 0
488 41 4 0.1165 -2.99999 31.1303 6.95636 0 0 0
489 41 4 0.1165 -5.26867 31.0123 7.31089 0 0 0
490 41 3 0.0403668 -6.00538 30.4566 9.8058 0 0 0
491 41 3 0.0403668 -6.08776 29.2301 8.57635 0 0 0
492 41 3 0.0403668 -4.71191 29.2142 9.80025 0 0 0
493 42 1 -0.0639002 -1.12112 28.647 11.9246 0 0 0
494 42 2 -0.1737 -1.48482 29.5413 13.0734 0 0 0
495 42 2 -0.1737 -2.75672 29.9869 13.22 0 0 0
496 42 1 -0.0639002 -3.74066 28.9459 12.9517 0 0 0
497 42 3 0.0403668 -0.133536 29.0189 11.6365 0 0 0
498 42 3 0.0403668 -1.82594 28.7391 11.0931 0 0 0
499 42 3 0.0403668 -1.09302 27.6148 12.2856 0 0 0
500 42 4 0.1165 -0.695013 29.9853 13.671 0 0 0
501 42 4 0.1165 -2.97381 30.8879 13.7849 0 0 0
502 42 3 0.0403668 -4.50784 28.9406 13.7314 0 0 0
503 42 3 0.0403668 -4.39787 29.258 12.1348 0 0 0
504 42 3 0.0403668 -3.36807 27.937 12.752 0 0 0
505 43 1 -0.0639002 -2.26047 28.2225 16.6451 0 0 0
506 43 2 -0.1737 -1.98255 29.6514 17.0898 0 0 0
507 43 2 -0.1737 -2.93857 30.6248 17.1142 0 0 0
508 43 1 -0.0639002 -4.36411 30.1602 16.9987 0 0 0
509 43 3 0.0403668 -3.09521 27.731 17.1533 0 0 0
510 43 3 0.0403668 -1.46616 27.5089 16.8827 0 0 0
511 43 3 0.0403668 -2.60499 28.2317 15.6069 0 0 0
512 43 4 0.1165 -0.955011 29.9642 17.2457 0 0 0
513 43 4 0.1165 -2.67663 31.6627 17.2933 0 0 0
514 43 3 0.0403668 -4.59574 29.5192 17.8544 0 0 0
515 43 3 0.0403668 -5.0715 30.9938 16.9625 0 0 0
516 43 3 0.0403668 -4.63534 29.6683 16.0601 0 0 0
517 44 1 -0.0639002 -0.315717 29.784 20.1257 0 0 0
518 44 2 -0.1737 -1.30977 30.6746 20.8102 0 0 0
519 44 2 -0.1737 -2.52922 30.2364 21.2913 0 0 0
520 44 1 -0.0639002 -3.13287 28.9404 20.8925 0 0 0
521 44 3 0.0403668 -0.766796 28.8468 19.7868 0 0 0
522 44 3 0.0403668 0.442676 29.5431 20.8764 0 0 0
523 44 3 0.0403668 0.154599 30.3018 19.2847 0 0 0
524 44 4 0.1165 -1.05983 31.6809 21.1309 0 0 0
525 44 4 0.1165 -3.01163 30.8943 22.0071 0 0 0
526 44 3 0.0403668 -2.94951 28.7437 19.8321 0 0 0
527 44 3 0.0403668 -2.85662 28.1256 21.5681 0 0 0
528 44 3 0.0403668 -4.21805 29.0767 20.8727 0 0 0
529 45 1 -0.0639002 -1.32167 29.5245 25.1114 0 0 0
530 45 2 -0.1737 -2.5305 30.4444 25.0966 0 0 0
531 45 2 -0.1737 -3.82149 30.0491 25.1871 0 0 0
532 45 1 -0.0639002 -4.39283 28.7282 25.2123 0 0 0
533 45 3 0.0403668 -1.56804 28.48 25.323 0 0 0
534 45 3 0.0403668 -0.640267 29.929 25.8655 0 0 0
535 45 3 0.0403668 -0.871143 29.5814 24.1161 0 0 0
536 45 4 0.1165 -2.2416 31.4826 25.2252 0 0 0
537 45 4 0.1165 -4.56313 30.8187 25.3761 0 0 0
538 45 3 0.0403668 -4.83924 28.4865 24.2433 0 0 0
539 45 3 0.0403668 -3.64333 27.9631 25.4346 0 0 0
540 45 3 0.0403668 -5.14338 28.5939 25.9967 0 0 0
541 46 1 -0.0639002 -1.28846 32.6794 -1.28005 0 0 0
542 46 2 -0.1737 -0.971259 33.632 -0.0437518 0 0 0
543 46 2 -0.1737 -1.95895 34.3243 0.701929 0 0 0
544 46 1 -0.0639002 -3.40154 34.573 0.231787 0 0 0
545 46 3 0.0403668 -1.94861 33.2139 27.5436 0 0 -1
546 46 3 0.0403668 -1.78189 31.7688 -0.92806 0 0 0
547 46 3 0.0403668 -0.3874 32.5111 27.636 0 0 -1
548 46 4 0.1165 0.0660878 33.8728 0.165913 0 0 0
549 46 4 0.1165 -1.59927 34.8498 1.58088 0 0 0
550 46 3 0.0403668 -3.5814 33.9046 -0.615289 0 0 0
551 46 3 0.0403668 -4.08687 34.3437 1.053 0 0 0
552 46 3 0.0403668 -3.72303 35.5972 0.0213938 0 0 0
553 47 1 -0.0639002 -1.37674 34.2074 4.63445 0 0 0
554 47 2 -0.1737 -2.85022 34.2599 4.55997 0 0 0
555 47 2 -0.1737 -3.71678 34.4887 5.63225 0 0 0
556 47 1 -0.0639002 -3.41031 34.4721 7.01004 0 0 0
557 47 3 0.0403668 -1.13022 33.3887 5.31684 0 0 0
558 47 3 0.0403668 -1.07232 35.1748 5.04447 0 0 0
559 47 3 0.0403668 -1.11019 34.0368 3.5873 0 0 0
560 47 4 0.1165 -3.41363 34.2028 3.63404 0 0 0
561 47 4 0.1165 -4.71838 34.4175 5.22025 0 0 0
562 47 3 0.0403668 -3.9871 33.6164 7.37303 0 0 0
563 47 3 0.0403668 -2.37546 34.3318 7.33565 0 0 0
564 47 3 0.0403668 -3.81217 35.4145 7.39334 0 0 0
565 48 1 -0.0639002 -1.85618 33.6597 10.8739 0 0 0
566 48 2 -0.1737 -3.19557 33.7205 11.785 0 0 0
567 48 2 -0.1737 -3.41587 34.7857 12.696 0 0 0
568 48 1 -0.0639002 -3.11466 36.1994 12.4077 0 0 0
569 48 3 0.0403668 -2.16166 33.1443 9.95868 0 0 0
570 48 3 0.0403668 -1.15538 33.0807 11.4823 0 0 0
571 48 3 0.0403668 -1.51656 34.6882 10.7201 0 0 0
572 48 4 0.1165 -3.7775 32.808 11.8666 0 0 0
573 48 4 0.1165 -4.08506 34.5149 13.5064 0 0 0
574 48 3 0.0403668 -3.18348 36.3846 11.3318 0 0 0
575 48 3 0.0403668 -3.88035 36.9103 12.7317 0 0 0
576 48 3 0.0403668 -2.13553 36.5366 12.7602 0 0 0
577 49 1 -0.0639002 -1.13749 34.2678 17.3677 0 0 0
578 49 2 -0.1737 -2.47351 34.9993 17.093 0 0 0
579 49 2 -0.1737 -3.66523 34.9649 17.8682 0 0 0
580 49 1 -0.0639002 -3.62203 34.4737 19.2707 0 0 0
581 49 3 0.0403668 -1.18977 33.7739 18.3423 0 0 0
582 49 3 0.0403668 -0.301491 34.9727 17.3972 0 0 0
583 49 3 0.0403668 -1.0017 33.4676 16.6342 0 0 0
584 49 4 0.1165 -2.49746 35.6433 16.2196 0 0 0
585 49 4 0.1165 -4.50343 35.5709 17.5393 0 0 0
586 49 3 0.0403668 -2.65034 34.1625 19.6651 0 0 0
587 49 3 0.0403668 -3.80296 35.3352 19.9201 0 0 0
588 49 3 0.0403668 -4.36195 33.7121 19.5334 0 0 0
589 50 1 -0.0639002 -3.92806 35.3735 23.1892 0 0 0
590 50 2 -0.1737 -3.23718 35.1949 24.5046 0 0 0
591 50 2 -0.1737 -3.74198 35.6605 25.7461 0 0 0
592 50 1 -0.0639002 -5.21182 35.9869 25.999 0 0 0
593 50 3 0.0403668 -4.72328 36.1174 23.2931 0 0 0
594 50 3 0.0403668 -4.34999 34.4855 22.7095 0 0 0
595 50 3 0.0403668 -3.19746 35.8147 22.505 0 0 0
596 50 4 0.1165 -2.1794 34.9633 24.4305 0 0 0
597 50 4 0.1165 -3.07461 35.8054 26.5897 0 0 0
598 50 3 0.0403668 -5.59078 35.8575 27.017 0 0 0
599 50 3 0.0403668 -5.55994 36.9807 25.7029 0 0 0
600 50 3 0.0403668 -5.69109 35.2571 25.3399 0 0 0
601 51 1 -0.0639002 5.8577 -2.66514 -0.889915 0 0 0
602 51 2 -0.1737 6.23095 -1.32163 27.9845 0 0 -1
603 51 2 -0.1737 5.67856 -0.0798775 -1.12866 0 0 0
604 51 1 -0.0639002 4.39056 0.0414192 -0.333164 0 0 0