ITEM: TIMESTEP
500
ITEM: NUMBER OF ATOMS
4800
ITEM: BOX BOUNDS xy xz yz pp pp pp
-6.6159681522719822e+00 5.3540331352272737e+01 0.0000000000000000e+00
-3.5750430559592274e+00 3.7109655055959195e+01 0.0000000000000000e+00
-1.2901167260874686e+00 2.8264431446087386e+01 0.0000000000000000e+00
ITEM: ATOMS id mol type q x y z ix iy iz
1 1 1 -0.0639002 -1.35085 -1.09946 -1.39134 0 0 0
2 1 2 -0.1737 -2.53418 -0.232854 -1.00645 0 0 0
3 1 2 -0.1737 -3.77093 -0.711936 28.279 0 0 -1
4 1 1 -0.0639002 -5.00451 0.0597539 -1.24047 0 0 0
5 1 3 0.0403668 -0.698057 -0.94989 -0.526405 0 0 0
6 1 3 0.0403668 -0.856084 -0.76239 27.2477 0 0 -1
7 1 3 0.0403668 -1.54386 -2.17518 28.1168 0 0 -1
8 1 4 0.1165 -2.2513 0.655571 -0.450883 0 0 0
9 1 4 0.1165 -3.92968 -1.64592 27.7494 0 0 -1
10 1 3 0.0403668 -4.82545 1.13644 28.2415 0 0 -1
11 1 3 0.0403668 -5.77918 -0.261027 27.6115 0 0 -1
12 1 3 0.0403668 -5.42796 -0.151125 -0.254142 0 0 0
13 2 1 -0.0639002 -2.75755 -2.58772 4.44962 0 0 0
14 2 2 -0.1737 -2.5928 -1.13567 4.79339 0 0 0
15 2 2 -0.1737 -2.51412 -0.102627 3.85935 0 0 0
16 2 1 -0.0639002 -2.87872 -0.371552 2.35938 0 0 0
17 2 3 0.0403668 -3.36795 -2.77431 3.56124 0 0 0
18 2 3 0.0403668 -3.19843 -3.14495 5.28132 0 0 0
19 2 3 0.0403668 -1.75763 -3.00191 4.29091 0 0 0
20 2 4 0.1165 -2.52778 -0.878817 5.84592 0 0 0
21 2 4 0.1165 -2.32757 0.934486 4.11928 0 0 0
22 2 3 0.0403668 -2.33023 0.342761 1.73849 0 0 0
23 2 3 0.0403668 -2.69833 -1.42819 2.14131 0 0 0
24 2 3 0.0403668 -3.95856 -0.241205 2.24313 0 0 0
25 3 1 -0.0639002 -2.86119 -1.7993 9.66942 0 0 0
26 3 2 -0.1737 -3.00814 -0.499531 9.02312 0 0 0
27 3 2 -0.1737 -4.17348 -0.235476 8.24892 0 0 0
28 3 1 -0.0639002 -5.01482 -1.31433 7.70597 0 0 0
29 3 3 0.0403668 -2.22832 -2.52614 9.15196 0 0 0
30 3 3 0.0403668 -3.78715 -2.34583 9.87057 0 0 0
31 3 3 0.0403668 -2.42701 -1.54936 10.6419 0 0 0
32 3 4 0.1165 -2.31344 0.328913 9.11824 0 0 0
33 3 4 0.1165 -4.50569 0.76413 7.9874 0 0 0
34 3 3 0.0403668 -5.9706 -1.30586 8.23794 0 0 0
35 3 3 0.0403668 -5.04857 -1.04193 6.64705 0 0 0
36 3 3 0.0403668 -4.50817 -2.28017 7.7899 0 0 0
37 4 1 -0.0639002 -0.778397 -0.148371 12.8364 0 0 0
38 4 2 -0.1737 -1.75953 -1.0382 13.5391 0 0 0
39 4 2 -0.1737 -3.11284 -0.834135 13.7135 0 0 0
40 4 1 -0.0639002 -3.8631 0.487162 13.7143 0 0 0
41 4 3 0.0403668 -1.02046 -0.168891 11.7698 0 0 0
42 4 3 0.0403668 0.183059 -0.651808 12.9732 0 0 0
43 4 3 0.0403668 -0.876959 0.903336 13.1206 0 0 0
44 4 4 0.1165 -1.43749 -2.02918 13.8428 0 0 0
45 4 4 0.1165 -3.62277 -1.70828 14.1057 0 0 0
46 4 3 0.0403668 -4.36971 0.530002 12.7457 0 0 0
47 4 3 0.0403668 -4.59479 0.549497 14.5251 0 0 0
48 4 3 0.0403668 -3.15778 1.31753 13.8121 0 0 0
49 5 1 -0.0639002 -0.61064 -1.53262 17.6779 0 0 0
50 5 2 -0.1737 -1.84311 -0.756134 17.6175 0 0 0
51 5 2 -0.1737 -3.05943 -1.39107 17.9333 0 0 0
52 5 1 -0.0639002 -4.44698 -0.550218 17.9366 0 0 0
53 5 3 0.0403668 -0.368881 -1.69373 18.7325 0 0 0
54 5 3 0.0403668 0.178808 -0.935594 17.2122 0 0 0
55 5 3 0.0403668 -0.607729 -2.48565 17.141 0 0 0
56 5 4 0.1165 -1.83619 0.198835 17.1017 0 0 0
57 5 4 0.1165 -3.1965 -2.36629 18.3896 0 0 0
58 5 3 0.0403668 -4.77834 -0.567146 16.8942 0 0 0
59 5 3 0.0403668 -5.1964 -0.937115 18.6332 0 0 0
60 5 3 0.0403668 -4.27934 0.49748 18.2027 0 0 0
61 6 1 -0.0639002 -1.00985 -2.01132 23.0674 0 0 0
62 6 2 -0.1737 -1.982 -1.79104 22.0081 0 0 0
63 6 2 -0.1737 -3.28161 -1.42299 22.1589 0 0 0
64 6 1 -0.0639002 -4.0861 -1.57425 23.3649 0 0 0
65 6 3 0.0403668 -0.798709 -1.13078 23.6812 0 0 0
66 6 3 0.0403668 -0.0539557 -2.34719 22.6551 0 0 0
67 6 3 0.0403668 -1.27952 -2.81625 23.7573 0 0 0
68 6 4 0.1165 -1.54412 -1.6739 21.022 0 0 0
69 6 4 0.1165 -3.74899 -0.896274 21.333 0 0 0
70 6 3 0.0403668 -3.45634 -1.79978 24.2305 0 0 0
71 6 3 0.0403668 -4.73122 -0.711962 23.5569 0 0 0
72 6 3 0.0403668 -4.71087 -2.46829 23.2816 0 0 0
73 7 1 -0.0639002 -1.09255 3.29373 2.02698 0 0 0
74 7 2 -0.1737 -1.73994 3.43747 0.677935 0 0 0
75 7 2 -0.1737 -3.0792 3.5267 0.507078 0 0 0
76 7 1 -0.0639002 -4.00106 3.76492 1.66125 0 0 0
77 7 3 0.0403668 -0.437263 2.42851 1.89074 0 0 0
78 7 3 0.0403668 -1.68325 3.08084 2.92273 0 0 0
79 7 3 0.0403668 -0.377625 4.07262 2.30765 0 0 0
80 7 4 0.1165 -1.07539 3.62587 -0.15925 0 0 0
81 7 4 0.1165 -3.47477 3.59582 -0.501266 0 0 0
82 7 3 0.0403668 -4.02173 2.9753 2.418 0 0 0
83 7 3 0.0403668 -3.59961 4.70625 2.04766 0 0 0
84 7 3 0.0403668 -5.01751 4.05759 1.38241 0 0 0
85 8 1 -0.0639002 -1.14941 4.1989 5.94024 0 0 0
86 8 2 -0.1737 -2.26277 4.86277 5.27447 0 0 0
87 8 2 -0.1737 -3.63885 4.67684 5.49648 0 0 0
88 8 1 -0.0639002 -4.0989 3.55245 6.27809 0 0 0
89 8 3 0.0403668 -0.25102 4.5582 5.42997 0 0 0
90 8 3 0.0403668 -1.19068 3.10639 5.90419 0 0 0
91 8 3 0.0403668 -1.15937 4.55433 6.97475 0 0 0
92 8 4 0.1165 -2.00725 5.68948 4.6193 0 0 0
93 8 4 0.1165 -4.33531 5.3608 5.02201 0 0 0
94 8 3 0.0403668 -3.36727 2.75279 6.42588 0 0 0
95 8 3 0.0403668 -4.53285 3.89714 7.22122 0 0 0
96 8 3 0.0403668 -5.00705 3.20445 5.77734 0 0 0
97 9 1 -0.0639002 -1.38084 3.42647 10.8464 0 0 0
98 9 2 -0.1737 -2.79366 2.86475 10.8717 0 0 0
99 9 2 -0.1737 -3.89528 3.62808 10.5897 0 0 0
100 9 1 -0.0639002 -5.23542 2.93354 10.3655 0 0 0
101 9 3 0.0403668 -0.735778 2.87865 10.1533 0 0 0
102 9 3 0.0403668 -0.958182 3.33983 11.8517 0 0 0
103 9 3 0.0403668 -1.22025 4.46243 10.5341 0 0 0
104 9 4 0.1165 -2.76206 1.78241 10.9458 0 0 0
105 9 4 0.1165 -3.80147 4.69893 10.44 0 0 0
106 9 3 0.0403668 -5.48945 3.08001 9.31164 0 0 0
107 9 3 0.0403668 -5.01379 1.88202 10.5699 0 0 0
108 9 3 0.0403668 -6.07848 3.25494 10.984 0 0 0
109 10 1 -0.0639002 -0.879643 3.91001 15.6828 0 0 0
110 10 2 -0.1737 -1.93901 4.13967 16.6244 0 0 0
111 10 2 -0.1737 -3.25246 3.86246 16.3776 0 0 0
112 10 1 -0.0639002 -4.45407 4.34742 17.2614 0 0 0
113 10 3 0.0403668 -0.310753 4.8441 15.7029 0 0 0
114 10 3 0.0403668 -1.27804 3.64985 14.6978 0 0 0
115 10 3 0.0403668 -0.156807 3.09991 15.8163 0 0 0
116 10 4 0.1165 -1.64666 4.66697 17.5269 0 0 0
117 10 4 0.1165 -3.61185 3.4632 15.4345 0 0 0
118 10 3 0.0403668 -4.11715 5.06246 18.0176 0 0 0
119 10 3 0.0403668 -5.36069 4.57367 16.6927 0 0 0
120 10 3 0.0403668 -4.61186 3.47765 17.9058 0 0 0
121 11 1 -0.0639002 -2.85638 2.59441 20.3284 0 0 0
122 11 2 -0.1737 -2.81246 3.60617 21.3381 0 0 0
123 11 2 -0.1737 -3.70656 4.56656 21.5118 0 0 0
124 11 1 -0.0639002 -5.06356 4.62662 20.9302 0 0 0
125 11 3 0.0403668 -3.81679 2.08784 20.1959 0 0 0
126 11 3 0.0403668 -2.1431 1.80132 20.5709 0 0 0
127 11 3 0.0403668 -2.50006 2.97843 19.368 0 0 0
128 11 4 0.1165 -2.04208 3.48439 22.0929 0 0 0
129 11 4 0.1165 -3.44727 5.33385 22.2343 0 0 0
130 11 3 0.0403668 -5.18159 5.64531 20.5495 0 0 0
131 11 3 0.0403668 -5.31386 3.88364 20.1673 0 0 0
132 11 3 0.0403668 -5.80756 4.65398 21.7316 0 0 0
133 12 1 -0.0639002 -1.3275 2.70252 26.0093 0 0 0
134 12 2 -0.1737 -2.0276 3.91136 25.3725 0 0 0
135 12 2 -0.1737 -3.31258 3.93563 24.9444 0 0 0
136 12 1 -0.0639002 -4.2539 2.81357 25.3492 0 0 0
137 12 3 0.0403668 -1.93724 1.84754 26.3156 0 0 0
138 12 3 0.0403668 -0.919044 3.03676 26.9675 0 0 0
139 12 3 0.0403668 -0.515073 2.42499 25.3314 0 0 0
140 12 4 0.1165 -1.47113 4.83211 25.2293 0 0 0
141 12 4 0.1165 -3.69067 4.76939 24.3614 0 0 0
142 12 3 0.0403668 -4.92327 2.76809 24.4852 0 0 0
143 12 3 0.0403668 -3.75339 1.84825 25.4685 0 0 0
144 12 3 0.0403668 -4.77239 3.07673 26.2758 0 0 0
145 13 1 -0.0639002 -2.07678 8.32396 3.61551 0 0 0
146 13 2 -0.1737 -3.2972 8.26694 2.6818 0 0 0
147 13 2 -0.1737 -4.59561 8.67117 3.04327 0 0 0
148 13 1 -0.0639002 -4.89029 9.24958 4.51614 0 0 0
149 13 3 0.0403668 -2.37424 7.97485 4.60862 0 0 0
150 13 3 0.0403668 -1.7233 9.32295 3.88688 0 0 0
151 13 3 0.0403668 -1.19666 7.73336 3.34505 0 0 0
152 13 4 0.1165 -3.09335 7.98903 1.6526 0 0 0
153 13 4 0.1165 -5.3979 8.67519 2.3123 0 0 0
154 13 3 0.0403668 -5.5359 8.54299 5.04578 0 0 0
155 13 3 0.0403668 -3.98653 9.36969 5.12061 0 0 0
156 13 3 0.0403668 -5.45795 10.1842 4.48769 0 0 0
157 14 1 -0.0639002 -1.98545 7.9735 7.8235 0 0 0
158 14 2 -0.1737 -2.97761 7.58217 8.89082 0 0 0
159 14 2 -0.1737 -4.22225 8.23091 9.07797 0 0 0
160 14 1 -0.0639002 -4.71459 9.27163 8.10767 0 0 0
161 14 3 0.0403668 -2.43397 7.71607 6.85956 0 0 0
162 14 3 0.0403668 -1.10617 7.32286 7.834 0 0 0
163 14 3 0.0403668 -1.67772 9.0202 7.90291 0 0 0
164 14 4 0.1165 -2.8079 6.83102 9.65566 0 0 0
165 14 4 0.1165 -4.761 7.98309 9.987 0 0 0
166 14 3 0.0403668 -5.32428 8.84491 7.30592 0 0 0
167 14 3 0.0403668 -5.33388 9.95428 8.6968 0 0 0
168 14 3 0.0403668 -3.93529 9.88902 7.65148 0 0 0
169 15 1 -0.0639002 -2.28033 7.34848 13.0353 0 0 0
170 15 2 -0.1737 -3.23501 8.45222 12.7125 0 0 0
171 15 2 -0.1737 -4.60707 8.30199 12.5267 0 0 0
172 15 1 -0.0639002 -5.42231 7.20818 13.1159 0 0 0
173 15 3 0.0403668 -2.69992 6.42332 13.441 0 0 0
174 15 3 0.0403668 -1.40706 7.60277 13.643 0 0 0
175 15 3 0.0403668 -1.8187 7.03224 12.0953 0 0 0
176 15 4 0.1165 -2.82513 9.42196 12.4487 0 0 0
177 15 4 0.1165 -5.18784 9.19242 12.308 0 0 0
178 15 3 0.0403668 -4.91803 6.99466 14.0629 0 0 0
179 15 3 0.0403668 -6.46794 7.50521 13.2383 0 0 0
180 15 3 0.0403668 -5.44286 6.28539 12.5289 0 0 0
181 16 1 -0.0639002 -2.11904 7.11801 19.1707 0 0 0
182 16 2 -0.1737 -1.56526 7.75566 17.9717 0 0 0
183 16 2 -0.1737 -2.32412 8.17989 16.9534 0 0 0
184 16 1 -0.0639002 -3.79455 8.62046 17.1841 0 0 0
185 16 3 0.0403668 -1.80452 6.07032 19.1689 0 0 0
186 16 3 0.0403668 -3.20995 7.11982 19.2511 0 0 0
187 16 3 0.0403668 -1.73882 7.59012 20.0813 0 0 0
188 16 4 0.1165 -0.519504 7.51952 17.8026 0 0 0
189 16 4 0.1165 -1.83217 8.42471 16.0174 0 0 0
190 16 3 0.0403668 -4.46032 7.75733 17.2754 0 0 0
191 16 3 0.0403668 -3.82206 9.26024 18.071 0 0 0
192 16 3 0.0403668 -4.12078 9.25775 16.357 0 0 0
193 17 1 -0.0639002 -1.50731 7.7636 24.0825 0 0 0
194 17 2 -0.1737 -2.49431 8.95955 24.3487 0 0 0
195 17 2 -0.1737 -3.3152 9.61598 23.403 0 0 0
196 17 1 -0.0639002 -3.47216 9.30495 21.8351 0 0 0
197 17 3 0.0403668 -1.57641 7.10586 23.2112 0 0 0
198 17 3 0.0403668 -1.92548 7.06002 24.8083 0 0 0
199 17 3 0.0403668 -0.469076 8.06618 24.2471 0 0 0
200 17 4 0.1165 -2.35324 9.46861 25.2968 0 0 0
201 17 4 0.1165 -3.88997 10.4352 23.823 0 0 0
202 17 3 0.0403668 -4.49356 9.48937 21.4897 0 0 0
203 17 3 0.0403668 -2.98023 10.0402 21.1917 0 0 0
204 17 3 0.0403668 -2.9647 8.34698 21.689 0 0 0
205 18 1 -0.0639002 -0.797567 8.04508 -1.00233 0 0 1
206 18 2 -0.1737 -1.8157 9.00368 -0.767096 0 0 1
207 18 2 -0.1737 -3.11242 9.0354 -1.06458 0 0 1
208 18 1 -0.0639002 -3.83954 8.01848 27.6686 0 0 0
209 18 3 0.0403668 -0.711117 7.46662 -0.0779093 0 0 1
210 18 3 0.0403668 0.166217 8.42406 -1.35456 0 0 1
211 18 3 0.0403668 -1.12914 7.2953 27.828 0 0 0
212 18 4 0.1165 -1.41488 9.83968 -0.202796 0 0 1
213 18 4 0.1165 -3.60315 9.9047 -0.638586 0 0 1
214 18 3 0.0403668 -4.77467 7.8679 28.2159 0 0 0
215 18 3 0.0403668 -4.19279 8.3925 26.7033 0 0 0
216 18 3 0.0403668 -3.37555 7.02798 27.6549 0 0 0
217 19 1 -0.0639002 -3.87127 13.11 -0.192068 0 0 0
218 19 2 -0.1737 -3.88916 14.6424 -0.510024 0 0 0
219 19 2 -0.1737 -4.95229 15.5162 -0.241921 0 0 0
220 19 1 -0.0639002 -6.1729 15.0306 0.495444 0 0 0
221 19 3 0.0403668 -4.3692 12.8198 0.737708 0 0 0
222 19 3 0.0403668 -2.83813 12.7823 -0.0443647 0 0 0
223 19 3 0.0403668 -4.28302 12.5557 -1.04049 0 0 0
224 19 4 0.1165 -2.95493 15.0282 -0.905419 0 0 0
225 19 4 0.1165 -4.96814 16.5617 -0.532653 0 0 0
226 19 3 0.0403668 -6.34428 13.9528 0.56941 0 0 0
227 19 3 0.0403668 -5.97985 15.3704 1.51719 0 0 0
228 19 3 0.0403668 53.1266 15.6369 0.187165 -1 0 0
229 20 1 -0.0639002 -2.64981 12.2451 3.87312 0 0 0
230 20 2 -0.1737 -1.75779 13.444 3.89342 0 0 0
231 20 2 -0.1737 -2.06677 14.7637 3.6273 0 0 0
232 20 1 -0.0639002 -3.29674 15.3186 3.07991 0 0 0
233 20 3 0.0403668 -2.48199 11.7028 2.93806 0 0 0
234 20 3 0.0403668 -3.72246 12.4595 3.87317 0 0 0
235 20 3 0.0403668 -2.28969 11.7146 4.75936 0 0 0
236 20 4 0.1165 -0.728377 13.3378 4.22049 0 0 0
237 20 4 0.1165 -1.26939 15.4028 3.99286 0 0 0
238 20 3 0.0403668 -3.12539 16.0099 2.24962 0 0 0
239 20 3 0.0403668 -3.88665 14.468 2.72624 0 0 0
240 20 3 0.0403668 -3.7557 15.9284 3.86359 0 0 0
241 21 1 -0.0639002 -2.60974 13.999 7.36403 0 0 0
242 21 2 -0.1737 -3.9251 14.6567 6.78216 0 0 0
243 21 2 -0.1737 -5.15337 14.0627 6.76633 0 0 0
244 21 1 -0.0639002 -5.29596 12.6101 7.12692 0 0 0
245 21 3 0.0403668 -2.0587 14.8388 7.7974 0 0 0
246 21 3 0.0403668 -1.99007 13.589 6.56123 0 0 0
247 21 3 0.0403668 -2.87282 13.2034 8.06711 0 0 0
248 21 4 0.1165 -3.89185 15.7134 6.53669 0 0 0
249 21 4 0.1165 -6.04176 14.6149 6.47677 0 0 0
250 21 3 0.0403668 -5.99972 12.6338 7.96405 0 0 0
251 21 3 0.0403668 -5.74723 12.2179 6.21085 0 0 0
252 21 3 0.0403668 -4.3552 12.0977 7.34835 0 0 0
253 22 1 -0.0639002 -1.80165 12.4374 11.4307 0 0 0
254 22 2 -0.1737 -1.70891 13.892 11.3436 0 0 0
255 22 2 -0.1737 -2.72915 14.6958 11.1099 0 0 0
256 22 1 -0.0639002 -4.1204 14.3668 10.8664 0 0 0
257 22 3 0.0403668 -2.71751 12.0723 10.9569 0 0 0
258 22 3 0.0403668 -1.83443 12.2396 12.5061 0 0 0
259 22 3 0.0403668 -0.932941 12.1209 10.8461 0 0 0
260 22 4 0.1165 -0.812966 14.4863 11.492 0 0 0
261 22 4 0.1165 -2.48398 15.7529 11.1279 0 0 0
262 22 3 0.0403668 -4.67778 14.9347 11.617 0 0 0
263 22 3 0.0403668 -4.2879 14.6454 9.82185 0 0 0
264 22 3 0.0403668 -4.20868 13.301 11.0962 0 0 0
265 23 1 -0.0639002 -5.45224 12.7199 14.685 0 0 0
266 23 2 -0.1737 -4.6037 13.8633 14.6817 0 0 0
267 23 2 -0.1737 -4.91058 15.1731 14.3516 0 0 0
268 23 1 -0.0639002 -6.22411 15.8168 14.1357 0 0 0
269 23 3 0.0403668 -4.9159 11.857 15.0903 0 0 0
270 23 3 0.0403668 -5.85673 12.2983 13.7601 0 0 0
271 23 3 0.0403668 -6.29741 12.8942 15.3572 0 0 0
272 23 4 0.1165 -3.59543 13.7169 15.0558 0 0 0
273 23 4 0.1165 -4.10862 15.8866 14.512 0 0 0
274 23 3 0.0403668 53.5885 16.1885 15.1054 -1 0 0
275 23 3 0.0403668 -6.17848 16.5984 13.3718 0 0 0
276 23 3 0.0403668 53.1416 15.0917 13.9217 -1 0 0
277 24 1 -0.0639002 -0.0207313 12.2556 17.4619 0 0 0
278 24 2 -0.1737 -0.644963 13.5742 17.9247 0 0 0
279 24 2 -0.1737 -2.01046 13.7418 18.2896 0 0 0
280 24 1 -0.0639002 -3.08197 12.759 18.106 0 0 0
281 24 3 0.0403668 1.04362 12.4821 17.3504 0 0 0
282 24 3 0.0403668 -0.354226 11.8394 16.5068 0 0 0
283 24 3 0.0403668 -0.0772505 11.4526 18.2025 0 0 0
284 24 4 0.1165 0.00443825 14.3865 18.2351 0 0 0
285 24 4 0.1165 -2.24162 14.7103 18.7214 0 0 0
286 24 3 0.0403668 -3.94082 13.1184 17.5318 0 0 0
287 24 3 0.0403668 -2.4971 11.9435 17.6707 0 0 0
288 24 3 0.0403668 -3.4992 12.4035 19.0527 0 0 0
289 25 1 -0.0639002 -2.05426 14.9731 21.8498 0 0 0
290 25 2 -0.1737 -3.09996 15.9524 21.4274 0 0 0
291 25 2 -0.1737 -4.4088 15.7781 21.4707 0 0 0
292 25 1 -0.0639002 -5.16449 14.6046 21.8776 0 0 0
293 25 3 0.0403668 -2.4009 13.9774 22.1415 0 0 0
294 25 3 0.0403668 -1.5279 15.5519 22.6144 0 0 0
295 25 3 0.0403668 -1.21445 14.8429 21.161 0 0 0
296 25 4 0.1165 -2.67013 16.9206 21.1909 0 0 0
297 25 4 0.1165 -4.96497 16.6944 21.3003 0 0 0
298 25 3 0.0403668 -4.60231 13.8977 22.4948 0 0 0
299 25 3 0.0403668 -6.01759 14.8626 22.5118 0 0 0
300 25 3 0.0403668 -5.45278 14.126 20.9371 0 0 0
301 26 1 -0.0639002 0.0199068 11.7387 25.8493 0 0 0
302 26 2 -0.1737 -0.241257 13.2286 26.0921 0 0 0
303 26 2 -0.1737 -1.501 13.8268 26.0508 0 0 0
304 26 1 -0.0639002 -2.73653 13.133 25.433 0 0 0
305 26 3 0.0403668 0.677394 11.6091 24.9847 0 0 0
306 26 3 0.0403668 -0.893918 11.1496 25.7291 0 0 0
307 26 3 0.0403668 0.521861 11.2752 26.7036 0 0 0
308 26 4 0.1165 0.586532 13.8016 26.4975 0 0 0
309 26 4 0.1165 -1.5242 14.8784 26.3182 0 0 0
310 26 3 0.0403668 -3.24789 13.9354 24.8933 0 0 0
311 26 3 0.0403668 -2.31654 12.3655 24.7763 0 0 0
312 26 3 0.0403668 -3.40093 12.7023 26.1878 0 0 0
313 27 1 -0.0639002 -1.06242 18.4884 3.07169 0 0 0
314 27 2 -0.1737 -1.95198 19.406 2.15167 0 0 0
315 27 2 -0.1737 -3.22853 19.8661 2.54341 0 0 0
316 27 1 -0.0639002 -3.68765 19.7889 3.91526 0 0 0
317 27 3 0.0403668 -0.0616624 18.3861 2.64204 0 0 0
318 27 3 0.0403668 -1.67635 17.5955 3.22141 0 0 0
319 27 3 0.0403668 -1.00699 18.9465 4.0635 0 0 0
320 27 4 0.1165 -1.63129 19.3877 1.11492 0 0 0
321 27 4 0.1165 -3.9339 20.2536 1.81525 0 0 0
322 27 3 0.0403668 -3.07137 20.5813 4.34992 0 0 0
323 27 3 0.0403668 -4.73613 20.1007 3.91575 0 0 0
324 27 3 0.0403668 -3.60614 18.8019 4.37974 0 0 0
325 28 1 -0.0639002 -0.888253 19.8415 7.76649 0 0 0
326 28 2 -0.1737 -1.78754 18.6915 7.407 0 0 0
327 28 2 -0.1737 -3.15949 18.8685 7.38192 0 0 0
328 28 1 -0.0639002 -3.92674 19.8359 8.26986 0 0 0
329 28 3 0.0403668 -0.193958 19.9334 6.92618 0 0 0
330 28 3 0.0403668 -0.403909 19.5302 8.69664 0 0 0
331 28 3 0.0403668 -1.38511 20.7773 8.03826 0 0 0
332 28 4 0.1165 -1.37591 17.8298 6.89124 0 0 0
333 28 4 0.1165 -3.67972 18.2165 6.68746 0 0 0
334 28 3 0.0403668 -4.70125 20.3431 7.68722 0 0 0
335 28 3 0.0403668 -4.46926 19.2912 9.04805 0 0 0
336 28 3 0.0403668 -3.31278 20.5156 8.86791 0 0 0
337 29 1 -0.0639002 -2.24551 20.6341 11.8439 0 0 0
338 29 2 -0.1737 -2.44636 20.3032 13.2485 0 0 0
339 29 2 -0.1737 -3.66473 20.1214 13.8856 0 0 0
340 29 1 -0.0639002 -4.94961 19.8439 13.1622 0 0 0
341 29 3 0.0403668 -2.65237 19.8707 11.1743 0 0 0
342 29 3 0.0403668 -1.20784 20.8464 11.5705 0 0 0
343 29 3 0.0403668 -2.72437 21.5967 11.6425 0 0 0
344 29 4 0.1165 -1.6251 20.2083 13.9517 0 0 0
345 29 4 0.1165 -3.67295 20.0495 14.9686 0 0 0
346 29 3 0.0403668 -5.52929 19.2239 13.8523 0 0 0
347 29 3 0.0403668 -5.56671 20.7344 13.0116 0 0 0
348 29 3 0.0403668 -4.7637 19.321 12.2194 0 0 0
349 30 1 -0.0639002 -1.52065 19.0882 17.4177 0 0 0
350 30 2 -0.1737 -2.82271 19.7086 17.7626 0 0 0
351 30 2 -0.1737 -4.0073 19.0819 18.03 0 0 0
352 30 1 -0.0639002 -4.127 17.5557 17.8849 0 0 0
353 30 3 0.0403668 -1.13128 19.4573 16.4643 0 0 0
354 30 3 0.0403668 -1.58462 18.0175 17.2032 0 0 0
355 30 3 0.0403668 -0.735103 19.2547 18.1605 0 0 0
356 30 4 0.1165 -2.87547 20.7858 17.8843 0 0 0
357 30 4 0.1165 -4.8877 19.641 18.3303 0 0 0
358 30 3 0.0403668 -4.92267 17.1356 18.507 0 0 0
359 30 3 0.0403668 -4.30118 17.3387 16.8269 0 0 0
360 30 3 0.0403668 -3.2608 17.0277 18.2941 0 0 0
361 31 1 -0.0639002 -1.88755 19.326 23.0845 0 0 0
362 31 2 -0.1737 -2.39051 20.0664 21.8472 0 0 0
363 31 2 -0.1737 -3.70119 20.5521 21.6854 0 0 0
364 31 1 -0.0639002 -4.79905 20.372 22.6716 0 0 0
365 31 3 0.0403668 -2.58134 18.9007 23.8155 0 0 0
366 31 3 0.0403668 -1.31691 20.0488 23.6748 0 0 0
367 31 3 0.0403668 -1.18505 18.5253 22.8354 0 0 0
368 31 4 0.1165 -1.71507 20.4599 21.0942 0 0 0
369 31 4 0.1165 -4.01374 21.1098 20.8083 0 0 0
370 31 3 0.0403668 -5.69984 20.9474 22.4391 0 0 0
371 31 3 0.0403668 -5.16609 19.3462 22.769 0 0 0
372 31 3 0.0403668 -4.51606 20.6913 23.6789 0 0 0
373 32 1 -0.0639002 -1.18587 18.4694 26.8643 0 0 0
374 32 2 -0.1737 -0.735998 19.9394 26.7205 0 0 0
375 32 2 -0.1737 -1.63202 20.9839 26.4622 0 0 0
376 32 1 -0.0639002 -3.14643 20.8723 26.6146 0 0 0
377 32 3 0.0403668 -0.734179 18.1241 27.7988 0 0 0
378 32 3 0.0403668 -0.684057 17.9199 26.0625 0 0 0
379 32 3 0.0403668 -2.26836 18.3412 26.9555 0 0 0
380 32 4 0.1165 0.345263 20.0273 26.7538 0 0 0
381 32 4 0.1165 -1.23372 21.978 26.286 0 0 0
382 32 3 0.0403668 -3.55345 21.8488 26.3366 0 0 0
383 32 3 0.0403668 -3.48165 20.0312 26.0007 0 0 0
384 32 3 0.0403668 -3.50627 20.6925 27.6319 0 0 0
385 33 1 -0.0639002 0.00209155 24.1231 -1.02582 0 0 0
386 33 2 -0.1737 -1.31238 24.834 -1.23482 0 0 0
387 33 2 -0.1737 -2.55738 24.4008 -0.658809 0 0 0
388 33 1 -0.0639002 -2.63166 23.214 0.389875 0 0 0
389 33 3 0.0403668 0.581397 23.9201 27.6233 0 0 -1
390 33 3 0.0403668 -0.160619 23.1223 -0.615385 0 0 0
391 33 3 0.0403668 0.737009 24.6187 -0.384805 0 0 0
392 33 4 0.1165 -1.2201 25.7295 27.7135 0 0 -1
393 33 4 0.1165 -3.49443 24.9279 -0.807288 0 0 0
394 33 3 0.0403668 -1.64225 23.0739 0.834859 0 0 0
395 33 3 0.0403668 -3.40164 23.3545 1.15406 0 0 0
396 33 3 0.0403668 -2.88203 22.3007 -0.157539 0 0 0
397 34 1 -0.0639002 -1.75133 23.0685 5.70494 0 0 0
398 34 2 -0.1737 -1.83032 23.9694 4.48339 0 0 0
399 34 2 -0.1737 -2.93297 24.2869 3.82791 0 0 0
400 34 1 -0.0639002 -4.30443 23.8063 4.16902 0 0 0
401 34 3 0.0403668 -1.44653 22.0902 5.32206 0 0 0
402 34 3 0.0403668 -2.65479 22.9012 6.29854 0 0 0
403 34 3 0.0403668 -0.970628 23.5699 6.28426 0 0 0
404 34 4 0.1165 -0.913048 24.3329 4.03125 0 0 0
405 34 4 0.1165 -2.88614 24.9247 2.95097 0 0 0
406 34 3 0.0403668 -4.89819 23.4849 3.30834 0 0 0
407 34 3 0.0403668 -4.21088 23.0616 4.9648 0 0 0
408 34 3 0.0403668 -4.74494 24.7555 4.48776 0 0 0
409 35 1 -0.0639002 -2.07491 25.7314 8.25159 0 0 0
410 35 2 -0.1737 -3.30078 26.108 9.0301 0 0 0
411 35 2 -0.1737 -4.37268 25.3122 9.38895 0 0 0
412 35 1 -0.0639002 -4.62633 23.8729 9.08122 0 0 0
413 35 3 0.0403668 -1.1495 26.136 8.67173 0 0 0
414 35 3 0.0403668 -2.16121 26.2671 7.30172 0 0 0
415 35 3 0.0403668 -1.95429 24.6611 8.06079 0 0 0
416 35 4 0.1165 -3.19294 27.1103 9.43209 0 0 0
417 35 4 0.1165 -5.20046 25.6958 9.97686 0 0 0
418 35 3 0.0403668 -4.52834 23.3187 10.0192 0 0 0
419 35 3 0.0403668 -5.69949 23.787 8.88753 0 0 0
420 35 3 0.0403668 -3.8996 23.5051 8.351 0 0 0
421 36 1 -0.0639002 -0.808227 24.363 12.6458 0 0 0
422 36 2 -0.1737 -2.19014 24.171 12.2379 0 0 0
423 36 2 -0.1737 -3.31056 24.2971 12.9849 0 0 0
424 36 1 -0.0639002 -3.56579 24.3239 14.4643 0 0 0
425 36 3 0.0403668 -0.729174 24.9548 13.5624 0 0 0
426 36 3 0.0403668 -0.322143 24.9839 11.8876 0 0 0
427 36 3 0.0403668 -0.309534 23.3929 12.7288 0 0 0
428 36 4 0.1165 -2.42349 24.0196 11.1888 0 0 0
429 36 4 0.1165 -4.19468 24.2951 12.3554 0 0 0
430 36 3 0.0403668 -4.35983 23.5878 14.6197 0 0 0
431 36 3 0.0403668 -2.59775 24.123 14.9323 0 0 0
432 36 3 0.0403668 -3.89274 25.2901 14.8596 0 0 0
433 37 1 -0.0639002 -3.1897 24.1487 18.3299 0 0 0
434 37 2 -0.1737 -4.39314 24.9689 18.2618 0 0 0
435 37 2 -0.1737 -5.24645 25.457 19.1676 0 0 0
436 37 1 -0.0639002 -5.03445 25.3786 20.5707 0 0 0
437 37 3 0.0403668 -3.37026 23.1748 17.8658 0 0 0
438 37 3 0.0403668 -2.88478 24.0427 19.3751 0 0 0
439 37 3 0.0403668 -2.33272 24.6378 17.8578 0 0 0
440 37 4 0.1165 -4.8157 25.149 17.2784 0 0 0
441 37 4 0.1165 -6.15936 25.8982 18.7805 0 0 0
442 37 3 0.0403668 -5.6073 24.5735 21.0401 0 0 0
443 37 3 0.0403668 -3.9533 25.3822 20.737 0 0 0
444 37 3 0.0403668 -5.51999 26.2823 20.9504 0 0 0
445 38 1 -0.0639002 -0.766002 23.5218 23.2499 0 0 0
446 38 2 -0.1737 -1.41004 24.7559 22.8671 0 0 0
447 38 2 -0.1737 -2.57258 25.3448 23.2923 0 0 0
448 38 1 -0.0639002 -3.28409 24.9217 24.53 0 0 0
449 38 3 0.0403668 -0.96434 23.2009 24.2766 0 0 0
450 38 3 0.0403668 0.309364 23.716 23.2003 0 0 0
451 38 3 0.0403668 -0.989658 22.7203 22.5398 0 0 0
452 38 4 0.1165 -1.0185 25.2399 21.9781 0 0 0
453 38 4 0.1165 -2.6995 26.3472 22.8963 0 0 0
454 38 3 0.0403668 -2.87494 25.4481 25.3973 0 0 0
455 38 3 0.0403668 -4.34559 25.1197 24.3551 0 0 0
456 38 3 0.0403668 -3.16463 23.8572 24.7513 0 0 0
457 39 1 -0.0639002 -2.88915 27.6352 0.0780572 0 0 0
458 39 2 -0.1737 -3.32855 29.0221 -0.481109 0 0 0
459 39 2 -0.1737 -4.54312 29.6597 -0.215044 0 0 0
460 39 1 -0.0639002 -5.69369 29.1447 0.738151 0 0 0
461 39 3 0.0403668 -3.67642 26.8932 0.239796 0 0 0
462 39 3 0.0403668 -2.53894 27.786 1.10337 0 0 0
463 39 3 0.0403668 -2.11306 27.1133 -0.489344 0 0 0
464 39 4 0.1165 -2.79278 29.3533 -1.365 0 0 0
465 39 4 0.1165 -4.7572 30.5646 -0.774801 0 0 0
466 39 3 0.0403668 -5.78523 29.6558 1.70098 0 0 0
467 39 3 0.0403668 -6.65858 29.3136 0.251259 0 0 0
468 39 3 0.0403668 -5.577 28.0631 0.852585 0 0 0
469 40 1 -0.0639002 -0.767913 28.3664 5.65833 0 0 0
470 40 2 -0.1737 -0.861131 29.4713 4.66133 0 0 0
471 40 2 -0.1737 -1.92076 29.8639 3.99746 0 0 0
472 40 1 -0.0639002 -3.19725 29.2478 3.93767 0 0 0
473 40 3 0.0403668 -1.08757 27.3959 5.26782 0 0 0
474 40 3 0.0403668 -1.21448 28.4944 6.64869 0 0 0
475 40 3 0.0403668 0.293108 28.1279 5.77637 0 0 0
476 40 4 0.1165 0.0797316 29.9856 4.49338 0 0 0
477 40 4 0.1165 -1.83264 30.7146 3.3292 0 0 0
478 40 3 0.0403668 -3.92845 30.0434 4.10758 0 0 0
479 40 3 0.0403668 -3.3112 28.7195 2.98655 0 0 0
480 40 3 0.0403668 -3.31691 28.5099 4.73637 0 0 0
481 41 1 -0.0639002 -2.29904 30.2501 8.65366 0 0 0
482 41 2 -0.1737 -3.38198 30.8005 7.64763 0 0 0
483 41 2 -0.1737 -4.77864 30.5663 7.80858 0 0 0
484 41 1 -0.0639002 -5.26454 29.7751 9.01184 0 0 0
485 41 3 0.0403668 -2.28524 30.9353 9.50624 0 0 0
486 41 3 0.0403668 -1.31602 30.3341 8.18124 0 0 0
487 41 3 0.0403668 -2.48857 29.2412 9.0316 0 0 0
488 41 4 0.1165 -3.10397 31.4774 6.84605 0 0 0
489 41 4 0.1165 -5.5573 31.0058 7.19334 0 0 0
490 41 3 0.0403668 -5.69591 30.5273 9.6787 0 0 0
491 41 3 0.0403668 -5.97181 28.9674 8.80214 0 0 0
492 41 3 0.0403668 -4.47363 29.2878 9.58941 0 0 0
493 42 1 -0.0639002 -0.766669 28.6148 12.037 0 0 0
494 42 2 -0.1737 -1.31394 29.665 13.0034 0 0 0
495 42 2 -0.1737 -2.6418 29.8215 13.4371 0 0 0
496 42 1 -0.0639002 -3.82595 28.9419 12.8836 0 0 0
497 42 3 0.0403668 0.113742 28.9637 11.4895 0 0 0
498 42 3 0.0403668 -1.47786 28.2309 11.2998 0 0 0
499 42 3 0.0403668 -0.434175 27.7443 12.61 0 0 0
500 42 4 0.1165 -0.582185 30.3423 13.4321 0 0 0
501 42 4 0.1165 -2.82797 30.7049 14.0395 0 0 0
502 42 3 0.0403668 -4.70744 29.5682 13.0487 0 0 0
503 42 3 0.0403668 -3.76043 28.824 11.798 0 0 0
504 42 3 0.0403668 -3.94059 28.0599 13.5204 0 0 0
505 43 1 -0.0639002 -2.13214 28.1572 16.8679 0 0 0
506 43 2 -0.1737 -2.1471 29.6885 17.2597 0 0 0
507 43 2 -0.1737 -3.11064 30.669 17.1478 0 0 0
508 43 1 -0.0639002 -4.61576 30.4243 16.9666 0 0 0
509 43 3 0.0403668 -3.08004 27.7611 16.4922 0 0 0
510 43 3 0.0403668 -1.6644 27.6321 17.7058 0 0 0
511 43 3 0.0403668 -1.43464 28.0868 16.0282 0 0 0
512 43 4 0.1165 -1.17031 30.123 17.447 0 0 0
513 43 4 0.1165 -2.74426 31.6808 17.2892 0 0 0
514 43 3 0.0403668 -4.85255 29.4434 17.3889 0 0 0
515 43 3 0.0403668 -5.08264 31.0734 17.7132 0 0 0
516 43 3 0.0403668 -5.01368 30.699 15.9854 0 0 0
517 44 1 -0.0639002 -0.142761 29.9732 20.1042 0 0 0
518 44 2 -0.1737 -1.2485 30.8018 20.7527 0 0 0
519 44 2 -0.1737 -2.53282 30.302 21.1819 0 0 0
520 44 1 -0.0639002 -3.11483 28.9926 20.662 0 0 0
521 44 3 0.0403668 -0.596248 29.1179 19.5949 0 0 0
522 44 3 0.0403668 0.519639 29.5522 20.8662 0 0 0
523 44 3 0.0403668 0.491329 30.5603 19.4335 0 0 0
524 44 4 0.1165 -1.05431 31.8287 21.0454 0 0 0
525 44 4 0.1165 -3.13564 31.009 21.7429 0 0 0
526 44 3 0.0403668 -2.42652 28.1938 20.9531 0 0 0
527 44 3 0.0403668 -4.06575 28.7736 21.1563 0 0 0
528 44 3 0.0403668 -3.2911 29.0752 19.5855 0 0 0
529 45 1 -0.0639002 -1.24837 29.5564 25.0961 0 0 0
530 45 2 -0.1737 -2.52287 30.4728 24.9987 0 0 0
531 45 2 -0.1737 -3.84049 30.1401 25.1856 0 0 0
532 45 1 -0.0639002 -4.37603 28.6739 25.5696 0 0 0
533 45 3 0.0403668 -1.53995 28.5181 24.9131 0 0 0
534 45 3 0.0403668 -0.774759 29.609 26.0807 0 0 0
535 45 3 0.0403668 -0.443536 29.7622 24.3844 0 0 0
536 45 4 0.1165 -2.33099 31.4452 24.5564 0 0 0
537 45 4 0.1165 -4.59748 30.8903 24.9804 0 0 0
538 45 3 0.0403668 -5.0598 28.3969 24.762 0 0 0
539 45 3 0.0403668 -3.56619 27.9386 25.5736 0 0 0
540 45 3 0.0403668 -4.74231 28.6577 26.6003 0 0 0
541 46 1 -0.0639002 -1.23858 32.7791 28.2085 0 0 -1
542 46 2 -0.1737 -0.925655 33.6655 -0.211177 0 0 0
543 46 2 -0.1737 -1.82163 34.3244 0.496555 0 0 0
544 46 1 -0.0639002 -3.23902 34.5041 0.04906 0 0 0
545 46 3 0.0403668 -2.19875 32.9642 27.7182 0 0 -1
546 46 3 0.0403668 -1.28854 31.7303 -1.03934 0 0 0
547 46 3 0.0403668 -0.471754 32.8885 27.4361 0 0 -1
548 46 4 0.1165 0.0864752 33.6642 0.180684 0 0 0
549 46 4 0.1165 -1.52797 34.6362 1.49382 0 0 0
550 46 3 0.0403668 -3.70825 33.789 -0.632904 0 0 0
551 46 3 0.0403668 -3.81772 34.3867 0.9699 0 0 0
552 46 3 0.0403668 -3.30617 35.5173 -0.357734 0 0 0
553 47 1 -0.0639002 -1.52752 34.3187 4.78403 0 0 0
554 47 2 -0.1737 -3.0404 34.2731 4.58452 0 0 0
555 47 2 -0.1737 -3.98284 34.3275 5.72716 0 0 0
556 47 1 -0.0639002 -3.39714 34.3519 7.10409 0 0 0
557 47 3 0.0403668 -1.12993 33.5429 5.4448 0 0 0
558 47 3 0.0403668 -1.15302 35.2454 5.22846 0 0 0
559 47 3 0.0403668 -0.986374 34.2745 3.83438 0 0 0
560 47 4 0.1165 -3.54475 34.3776 3.62916 0 0 0
561 47 4 0.1165 -5.05504 34.3847 5.56886 0 0 0
562 47 3 0.0403668 -3.6488 33.4695 7.69969 0 0 0
563 47 3 0.0403668 -2.30716 34.3998 7.02528 0 0 0
564 47 3 0.0403668 -3.7519 35.2863 7.5486 0 0 0
565 48 1 -0.0639002 -1.78817 33.8554 11.0984 0 0 0
566 48 2 -0.1737 -3.04682 33.7345 11.9189 0 0 0
567 48 2 -0.1737 -3.64483 34.8056 12.622 0 0 0
568 48 1 -0.0639002 -3.09839 36.2094 12.5173 0 0 0
569 48 3 0.0403668 -1.81019 33.4441 10.085 0 0 0
570 48 3 0.0403668 -0.980859 33.2568 11.5304 0 0 0
571 48 3 0.0403668 -1.36581 34.8577 10.9825 0 0 0
572 48 4 0.1165 -3.58217 32.7918 11.9708 0 0 0
573 48 4 0.1165 -4.57916 34.6206 13.1424 0 0 0
574 48 3 0.0403668 -3.30425 36.7509 11.5894 0 0 0
575 48 3 0.0403668 -3.67655 36.6897 13.3121 0 0 0
576 48 3 0.0403668 -2.02903 36.1026 12.7213 0 0 0
577 49 1 -0.0639002 -1.16112 34.264 17.1636 0 0 0
578 49 2 -0.1737 -2.38549 35.0598 17.1392 0 0 0
579 49 2 -0.1737 -3.54325 34.8391 17.8693 0 0 0
580 49 1 -0.0639002 -3.68096 34.1685 19.1501 0 0 0
581 49 3 0.0403668 -0.909594 33.6387 18.0252 0 0 0
582 49 3 0.0403668 -0.296165 34.9205 17.0317 0 0 0
583 49 3 0.0403668 -1.02472 33.7078 16.2316 0 0 0
584 49 4 0.1165 -2.5458 35.6251 16.2267 0 0 0
585 49 4 0.1165 -4.45683 35.3004 17.508 0 0 0
586 49 3 0.0403668 -3.47941 34.8889 19.9483 0 0 0
587 49 3 0.0403668 -4.71767 33.8227 19.1976 0 0 0
588 49 3 0.0403668 -3.00762 33.3107 19.2357 0 0 0
589 50 1 -0.0639002 -4.04867 35.2741 23.327 0 0 0
590 50 2 -0.1737 -3.389 35.2008 24.621 0 0 0
591 50 2 -0.1737 -3.92782 35.5056 25.8445 0 0 0
592 50 1 -0.0639002 -5.33695 36.0046 26.0455 0 0 0
593 50 3 0.0403668 -5.11815 35.0646 23.4214 0 0 0
594 50 3 0.0403668 -3.65707 34.4457 22.7294 0 0 0
595 50 3 0.0403668 -3.85526 36.2728 22.9249 0 0 0
596 50 4 0.1165 -2.40339 34.7476 24.5867 0 0 0
597 50 4 0.1165 -3.42571 35.2638 26.7759 0 0 0
598 50 3 0.0403668 -5.91231 35.1163 26.322 0 0 0
599 50 3 0.0403668 -5.38138 36.7938 26.8018 0 0 0
600 50 3 0.0403668 -5.71098 36.5122 25.1516 0 0 0
601 51 1 -0.0639002 6.14858 -2.71815 -0.898899 0 0 0
602 51 2 -0.1737 6.45895 -1.36974 -1.32596 0 0 0
603 51 2 -0.1737 5.70437 -0.261015 -1.17165 0 0 0
604 51 1 -0.0639002 4.456 -0.117158 -0.396296 0 0 0