# This data file is created by manyMolecule.jl

3300 atoms
3200 bonds
6000 angles
9600 dihedrals
600 impropers

4 atom types
5 bond types
5 angle types
11 dihedral types
1 improper types

0.0 62.198268 xlo xhi
0.0 25.347556 ylo yhi
0.0 28.983387999999998 zlo zhi
0.0 0.0 0.0 xy xz yz

Masses

1  12.01078
2  12.01078
3  1.007947
4  1.007947

Pair Coeffs

1  0.10884061 3.3795318
2  0.086879315 3.4806469
3  0.015779483 2.6445434
4  0.015611343 2.5725815

Bond Coeffs

1 harmonic 264.62148576755 1.52190126495
2 harmonic 370.04670688625 1.093899492634
3 harmonic 289.73813263395 1.498646816465
4 harmonic 399.1592953295 1.371688562017
5 harmonic 397.2545789619 1.085358495916

Angle Coeffs

1 harmonic 53.20531626545 116.5475862634
2 harmonic 57.8982893754 126.8062420451
3 harmonic 34.066775159195 129.1835929926
4 harmonic 48.776492647595 115.6030999533
5 harmonic 22.69631544292 130.7309534886

Dihedral Coeffs

1 fourier 1 0.09223874044423 3 0
2 fourier 1 0.3159935921949 2 180
3 fourier 1 0.3247796806857 1 180
4 fourier 1 0.1040663847541 3 0
5 fourier 1 0.1155372516788 3 0
6 fourier 1 -0.3703352413219 2 0
7 fourier 1 0.02664938770063 3 0
8 fourier 1 5.294842998052 2 180
9 fourier 1 0.2962286176719 3 180
10 fourier 1 0.007435022645929 1 0
11 fourier 1 0.1911926717192 3 0

Improper Coeffs

1  0.3666666666666667 -1 2

Atoms

1  1  1    -0.092221212     11.1614677     3.46212217     4.3106893
2  1  1    -0.080521212     9.8674862     3.56931799     3.57151615
3  1  1    -0.079521212     9.2394834     2.19946747     3.30108349
4  1  1    -0.079521212     7.9473937999999995     2.47716196     2.5524265
5  1  1    -0.078521212     7.20394211     1.2364334000000001     2.20861019
6  1  1    -0.078521212     5.951130559999999     1.5606785     1.4530971
7  1  1    -0.079521212     5.031110999999999     2.42808221     2.26584102
8  1  1    -0.076521212     3.7511153999999998     2.736514352     1.4980308
9  1  1    -0.051321212     2.8841694999999996     3.61458193     2.35753121
10  1  2    -0.16332121     2.537428     2.9373676     3.6175979199999997
11  1  2    -0.22712121     1.2789715     2.68567036     3.91599
12  1  3    0.032578788     11.9396536     4.0142965     3.7410195
13  1  3    0.032578788     11.507207999999999     2.4321919100000002     4.4298217
14  1  3    0.032578788     11.0908923     3.9976271     5.2966776
15  1  3    0.038578788     9.9992091     4.0671731     2.592529424
16  1  3    0.038578788     9.1287026     4.1184663     4.1881196
17  1  3    0.039078788     9.9251974     1.5617746000000001     2.746094061
18  1  3    0.039078788     8.978070599999999     1.72679171     4.2651488
19  1  3    0.040078788     8.1260897     3.07626665     1.6539583
20  1  3    0.040078788     7.3012264799999995     3.0837920800000003     3.25233536
21  1  3    0.039078788     7.8099247     0.5     1.6354733
22  1  3    0.039078788     6.9425387     0.7183688000000001     3.17716437
23  1  3    0.039078788     5.461813719999999     0.6303828999999999     1.1056152
24  1  3    0.039078788     6.260334987999999     2.08484012     0.5
25  1  3    0.040078788     5.48546142     3.37979166     2.55862845
26  1  3    0.040078788     4.7381500999999995     1.8468823200000002     3.16392044
27  1  3    0.041578788     3.2803503     1.76145635     1.2758611
28  1  3    0.041578788     3.9750656999999996     3.20729084     0.525093
29  1  3    0.046578788     3.4013205999999996     4.5695112     2.62123817
30  1  3    0.046578788     1.9530959999999995     3.9266069999999997     1.83397904
31  1  4    0.11987879     3.3108997999999996     2.65016834408     4.303268
32  1  4    0.11037879     0.5     2.9809491     3.22663953
33  1  4    0.11037879     0.9982555999999994     2.19387596     4.826736
34  2  1    -0.092221212     11.1614677     3.46212217     10.1073669
35  2  1    -0.080521212     9.8674862     3.56931799     9.36819375
36  2  1    -0.079521212     9.2394834     2.19946747     9.09776109
37  2  1    -0.079521212     7.9473937999999995     2.47716196     8.3491041
38  2  1    -0.078521212     7.20394211     1.2364334000000001     8.00528779
39  2  1    -0.078521212     5.951130559999999     1.5606785     7.2497747
40  2  1    -0.079521212     5.031110999999999     2.42808221     8.06251862
41  2  1    -0.076521212     3.7511153999999998     2.736514352     7.2947084
42  2  1    -0.051321212     2.8841694999999996     3.61458193     8.15420881
43  2  2    -0.16332121     2.537428     2.9373676     9.41427552
44  2  2    -0.22712121     1.2789715     2.68567036     9.7126676
45  2  3    0.032578788     11.9396536     4.0142965     9.5376971
46  2  3    0.032578788     11.507207999999999     2.4321919100000002     10.2264993
47  2  3    0.032578788     11.0908923     3.9976271     11.0933552
48  2  3    0.038578788     9.9992091     4.0671731     8.389207024000001
49  2  3    0.038578788     9.1287026     4.1184663     9.984797200000001
50  2  3    0.039078788     9.9251974     1.5617746000000001     8.542771661
51  2  3    0.039078788     8.978070599999999     1.72679171     10.061826400000001
52  2  3    0.040078788     8.1260897     3.07626665     7.4506359
53  2  3    0.040078788     7.3012264799999995     3.0837920800000003     9.04901296
54  2  3    0.039078788     7.8099247     0.5     7.4321509
55  2  3    0.039078788     6.9425387     0.7183688000000001     8.97384197
56  2  3    0.039078788     5.461813719999999     0.6303828999999999     6.9022928
57  2  3    0.039078788     6.260334987999999     2.08484012     6.296677600000001
58  2  3    0.040078788     5.48546142     3.37979166     8.35530605
59  2  3    0.040078788     4.7381500999999995     1.8468823200000002     8.96059804
60  2  3    0.041578788     3.2803503     1.76145635     7.0725387
61  2  3    0.041578788     3.9750656999999996     3.20729084     6.321770600000001
62  2  3    0.046578788     3.4013205999999996     4.5695112     8.41791577
63  2  3    0.046578788     1.9530959999999995     3.9266069999999997     7.63065664
64  2  4    0.11987879     3.3108997999999996     2.65016834408     10.0999456
65  2  4    0.11037879     0.5     2.9809491     9.02331713
66  2  4    0.11037879     0.9982555999999994     2.19387596     10.6234136
67  3  1    -0.092221212     11.1614677     3.46212217     21.700722099999997
68  3  1    -0.080521212     9.8674862     3.56931799     20.961548949999997
69  3  1    -0.079521212     9.2394834     2.19946747     20.691116289999997
70  3  1    -0.079521212     7.9473937999999995     2.47716196     19.9424593
71  3  1    -0.078521212     7.20394211     1.2364334000000001     19.59864299
72  3  1    -0.078521212     5.951130559999999     1.5606785     18.843129899999997
73  3  1    -0.079521212     5.031110999999999     2.42808221     19.655873819999996
74  3  1    -0.076521212     3.7511153999999998     2.736514352     18.8880636
75  3  1    -0.051321212     2.8841694999999996     3.61458193     19.747564009999998
76  3  2    -0.16332121     2.537428     2.9373676     21.007630719999998
77  3  2    -0.22712121     1.2789715     2.68567036     21.306022799999997
78  3  3    0.032578788     11.9396536     4.0142965     21.131052299999997
79  3  3    0.032578788     11.507207999999999     2.4321919100000002     21.819854499999998
80  3  3    0.032578788     11.0908923     3.9976271     22.6867104
81  3  3    0.038578788     9.9992091     4.0671731     19.982562224
82  3  3    0.038578788     9.1287026     4.1184663     21.578152399999997
83  3  3    0.039078788     9.9251974     1.5617746000000001     20.136126860999997
84  3  3    0.039078788     8.978070599999999     1.72679171     21.6551816
85  3  3    0.040078788     8.1260897     3.07626665     19.0439911
86  3  3    0.040078788     7.3012264799999995     3.0837920800000003     20.642368159999997
87  3  3    0.039078788     7.8099247     0.5     19.025506099999998
88  3  3    0.039078788     6.9425387     0.7183688000000001     20.567197169999996
89  3  3    0.039078788     5.461813719999999     0.6303828999999999     18.495648
90  3  3    0.039078788     6.260334987999999     2.08484012     17.890032799999997
91  3  3    0.040078788     5.48546142     3.37979166     19.948661249999997
92  3  3    0.040078788     4.7381500999999995     1.8468823200000002     20.55395324
93  3  3    0.041578788     3.2803503     1.76145635     18.665893899999997
94  3  3    0.041578788     3.9750656999999996     3.20729084     17.9151258
95  3  3    0.046578788     3.4013205999999996     4.5695112     20.011270969999998
96  3  3    0.046578788     1.9530959999999995     3.9266069999999997     19.22401184
97  3  4    0.11987879     3.3108997999999996     2.65016834408     21.6933008
98  3  4    0.11037879     0.5     2.9809491     20.616672329999997
99  3  4    0.11037879     0.9982555999999994     2.19387596     22.216768799999997
100  4  1    -0.092221212     11.1614677     3.46212217     27.4973997
101  4  1    -0.080521212     9.8674862     3.56931799     26.75822655
102  4  1    -0.079521212     9.2394834     2.19946747     26.48779389
103  4  1    -0.079521212     7.9473937999999995     2.47716196     25.739136900000002
104  4  1    -0.078521212     7.20394211     1.2364334000000001     25.39532059
105  4  1    -0.078521212     5.951130559999999     1.5606785     24.6398075
106  4  1    -0.079521212     5.031110999999999     2.42808221     25.45255142
107  4  1    -0.076521212     3.7511153999999998     2.736514352     24.6847412
108  4  1    -0.051321212     2.8841694999999996     3.61458193     25.54424161
109  4  2    -0.16332121     2.537428     2.9373676     26.80430832
110  4  2    -0.22712121     1.2789715     2.68567036     27.1027004
111  4  3    0.032578788     11.9396536     4.0142965     26.9277299
112  4  3    0.032578788     11.507207999999999     2.4321919100000002     27.6165321
113  4  3    0.032578788     11.0908923     3.9976271     28.483388
114  4  3    0.038578788     9.9992091     4.0671731     25.779239824
115  4  3    0.038578788     9.1287026     4.1184663     27.37483
116  4  3    0.039078788     9.9251974     1.5617746000000001     25.932804461
117  4  3    0.039078788     8.978070599999999     1.72679171     27.4518592
118  4  3    0.040078788     8.1260897     3.07626665     24.840668700000002
119  4  3    0.040078788     7.3012264799999995     3.0837920800000003     26.43904576
120  4  3    0.039078788     7.8099247     0.5     24.8221837
121  4  3    0.039078788     6.9425387     0.7183688000000001     26.36387477
122  4  3    0.039078788     5.461813719999999     0.6303828999999999     24.2923256
123  4  3    0.039078788     6.260334987999999     2.08484012     23.6867104
124  4  3    0.040078788     5.48546142     3.37979166     25.74533885
125  4  3    0.040078788     4.7381500999999995     1.8468823200000002     26.35063084
126  4  3    0.041578788     3.2803503     1.76145635     24.4625715
127  4  3    0.041578788     3.9750656999999996     3.20729084     23.7118034
128  4  3    0.046578788     3.4013205999999996     4.5695112     25.80794857
129  4  3    0.046578788     1.9530959999999995     3.9266069999999997     25.02068944
130  4  4    0.11987879     3.3108997999999996     2.65016834408     27.489978400000002
131  4  4    0.11037879     0.5     2.9809491     26.41334993
132  4  4    0.11037879     0.9982555999999994     2.19387596     28.0134464
133  5  1    -0.092221212     11.1614677     8.53163337     4.3106893
134  5  1    -0.080521212     9.8674862     8.63882919     3.57151615
135  5  1    -0.079521212     9.2394834     7.268978669999999     3.30108349
136  5  1    -0.079521212     7.9473937999999995     7.546673159999999     2.5524265
137  5  1    -0.078521212     7.20394211     6.3059446     2.20861019
138  5  1    -0.078521212     5.951130559999999     6.6301897     1.4530971
139  5  1    -0.079521212     5.031110999999999     7.4975934099999995     2.26584102
140  5  1    -0.076521212     3.7511153999999998     7.8060255519999995     1.4980308
141  5  1    -0.051321212     2.8841694999999996     8.684093129999999     2.35753121
142  5  2    -0.16332121     2.537428     8.006878799999999     3.6175979199999997
143  5  2    -0.22712121     1.2789715     7.75518156     3.91599
144  5  3    0.032578788     11.9396536     9.0838077     3.7410195
145  5  3    0.032578788     11.507207999999999     7.501703109999999     4.4298217
146  5  3    0.032578788     11.0908923     9.0671383     5.2966776
147  5  3    0.038578788     9.9992091     9.136684299999999     2.592529424
148  5  3    0.038578788     9.1287026     9.187977499999999     4.1881196
149  5  3    0.039078788     9.9251974     6.6312858     2.746094061
150  5  3    0.039078788     8.978070599999999     6.79630291     4.2651488
151  5  3    0.040078788     8.1260897     8.14577785     1.6539583
152  5  3    0.040078788     7.3012264799999995     8.15330328     3.25233536
153  5  3    0.039078788     7.8099247     5.569511199999999     1.6354733
154  5  3    0.039078788     6.9425387     5.7878799999999995     3.17716437
155  5  3    0.039078788     5.461813719999999     5.6998941     1.1056152
156  5  3    0.039078788     6.260334987999999     7.15435132     0.5
157  5  3    0.040078788     5.48546142     8.44930286     2.55862845
158  5  3    0.040078788     4.7381500999999995     6.91639352     3.16392044
159  5  3    0.041578788     3.2803503     6.8309675499999996     1.2758611
160  5  3    0.041578788     3.9750656999999996     8.27680204     0.525093
161  5  3    0.046578788     3.4013205999999996     9.6390224     2.62123817
162  5  3    0.046578788     1.9530959999999995     8.9961182     1.83397904
163  5  4    0.11987879     3.3108997999999996     7.71967954408     4.303268
164  5  4    0.11037879     0.5     8.0504603     3.22663953
165  5  4    0.11037879     0.9982555999999994     7.26338716     4.826736
166  6  1    -0.092221212     11.1614677     8.53163337     10.1073669
167  6  1    -0.080521212     9.8674862     8.63882919     9.36819375
168  6  1    -0.079521212     9.2394834     7.268978669999999     9.09776109
169  6  1    -0.079521212     7.9473937999999995     7.546673159999999     8.3491041
170  6  1    -0.078521212     7.20394211     6.3059446     8.00528779
171  6  1    -0.078521212     5.951130559999999     6.6301897     7.2497747
172  6  1    -0.079521212     5.031110999999999     7.4975934099999995     8.06251862
173  6  1    -0.076521212     3.7511153999999998     7.8060255519999995     7.2947084
174  6  1    -0.051321212     2.8841694999999996     8.684093129999999     8.15420881
175  6  2    -0.16332121     2.537428     8.006878799999999     9.41427552
176  6  2    -0.22712121     1.2789715     7.75518156     9.7126676
177  6  3    0.032578788     11.9396536     9.0838077     9.5376971
178  6  3    0.032578788     11.507207999999999     7.501703109999999     10.2264993
179  6  3    0.032578788     11.0908923     9.0671383     11.0933552
180  6  3    0.038578788     9.9992091     9.136684299999999     8.389207024000001
181  6  3    0.038578788     9.1287026     9.187977499999999     9.984797200000001
182  6  3    0.039078788     9.9251974     6.6312858     8.542771661
183  6  3    0.039078788     8.978070599999999     6.79630291     10.061826400000001
184  6  3    0.040078788     8.1260897     8.14577785     7.4506359
185  6  3    0.040078788     7.3012264799999995     8.15330328     9.04901296
186  6  3    0.039078788     7.8099247     5.569511199999999     7.4321509
187  6  3    0.039078788     6.9425387     5.7878799999999995     8.97384197
188  6  3    0.039078788     5.461813719999999     5.6998941     6.9022928
189  6  3    0.039078788     6.260334987999999     7.15435132     6.296677600000001
190  6  3    0.040078788     5.48546142     8.44930286     8.35530605
191  6  3    0.040078788     4.7381500999999995     6.91639352     8.96059804
192  6  3    0.041578788     3.2803503     6.8309675499999996     7.0725387
193  6  3    0.041578788     3.9750656999999996     8.27680204     6.321770600000001
194  6  3    0.046578788     3.4013205999999996     9.6390224     8.41791577
195  6  3    0.046578788     1.9530959999999995     8.9961182     7.63065664
196  6  4    0.11987879     3.3108997999999996     7.71967954408     10.0999456
197  6  4    0.11037879     0.5     8.0504603     9.02331713
198  6  4    0.11037879     0.9982555999999994     7.26338716     10.6234136
199  7  1    -0.092221212     11.1614677     8.53163337     15.9040445
200  7  1    -0.080521212     9.8674862     8.63882919     15.164871349999999
201  7  1    -0.079521212     9.2394834     7.268978669999999     14.89443869
202  7  1    -0.079521212     7.9473937999999995     7.546673159999999     14.145781699999999
203  7  1    -0.078521212     7.20394211     6.3059446     13.80196539
204  7  1    -0.078521212     5.951130559999999     6.6301897     13.046452299999999
205  7  1    -0.079521212     5.031110999999999     7.4975934099999995     13.85919622
206  7  1    -0.076521212     3.7511153999999998     7.8060255519999995     13.091386
207  7  1    -0.051321212     2.8841694999999996     8.684093129999999     13.950886409999999
208  7  2    -0.16332121     2.537428     8.006878799999999     15.21095312
209  7  2    -0.22712121     1.2789715     7.75518156     15.509345199999998
210  7  3    0.032578788     11.9396536     9.0838077     15.3343747
211  7  3    0.032578788     11.507207999999999     7.501703109999999     16.0231769
212  7  3    0.032578788     11.0908923     9.0671383     16.8900328
213  7  3    0.038578788     9.9992091     9.136684299999999     14.185884624
214  7  3    0.038578788     9.1287026     9.187977499999999     15.7814748
215  7  3    0.039078788     9.9251974     6.6312858     14.339449260999999
216  7  3    0.039078788     8.978070599999999     6.79630291     15.858504
217  7  3    0.040078788     8.1260897     8.14577785     13.247313499999999
218  7  3    0.040078788     7.3012264799999995     8.15330328     14.84569056
219  7  3    0.039078788     7.8099247     5.569511199999999     13.228828499999999
220  7  3    0.039078788     6.9425387     5.7878799999999995     14.77051957
221  7  3    0.039078788     5.461813719999999     5.6998941     12.698970399999999
222  7  3    0.039078788     6.260334987999999     7.15435132     12.0933552
223  7  3    0.040078788     5.48546142     8.44930286     14.151983649999998
224  7  3    0.040078788     4.7381500999999995     6.91639352     14.75727564
225  7  3    0.041578788     3.2803503     6.8309675499999996     12.8692163
226  7  3    0.041578788     3.9750656999999996     8.27680204     12.1184482
227  7  3    0.046578788     3.4013205999999996     9.6390224     14.21459337
228  7  3    0.046578788     1.9530959999999995     8.9961182     13.427334239999999
229  7  4    0.11987879     3.3108997999999996     7.71967954408     15.896623199999999
230  7  4    0.11037879     0.5     8.0504603     14.81999473
231  7  4    0.11037879     0.9982555999999994     7.26338716     16.420091199999998
232  8  1    -0.092221212     11.1614677     8.53163337     21.700722099999997
233  8  1    -0.080521212     9.8674862     8.63882919     20.961548949999997
234  8  1    -0.079521212     9.2394834     7.268978669999999     20.691116289999997
235  8  1    -0.079521212     7.9473937999999995     7.546673159999999     19.9424593
236  8  1    -0.078521212     7.20394211     6.3059446     19.59864299
237  8  1    -0.078521212     5.951130559999999     6.6301897     18.843129899999997
238  8  1    -0.079521212     5.031110999999999     7.4975934099999995     19.655873819999996
239  8  1    -0.076521212     3.7511153999999998     7.8060255519999995     18.8880636
240  8  1    -0.051321212     2.8841694999999996     8.684093129999999     19.747564009999998
241  8  2    -0.16332121     2.537428     8.006878799999999     21.007630719999998
242  8  2    -0.22712121     1.2789715     7.75518156     21.306022799999997
243  8  3    0.032578788     11.9396536     9.0838077     21.131052299999997
244  8  3    0.032578788     11.507207999999999     7.501703109999999     21.819854499999998
245  8  3    0.032578788     11.0908923     9.0671383     22.6867104
246  8  3    0.038578788     9.9992091     9.136684299999999     19.982562224
247  8  3    0.038578788     9.1287026     9.187977499999999     21.578152399999997
248  8  3    0.039078788     9.9251974     6.6312858     20.136126860999997
249  8  3    0.039078788     8.978070599999999     6.79630291     21.6551816
250  8  3    0.040078788     8.1260897     8.14577785     19.0439911
251  8  3    0.040078788     7.3012264799999995     8.15330328     20.642368159999997
252  8  3    0.039078788     7.8099247     5.569511199999999     19.025506099999998
253  8  3    0.039078788     6.9425387     5.7878799999999995     20.567197169999996
254  8  3    0.039078788     5.461813719999999     5.6998941     18.495648
255  8  3    0.039078788     6.260334987999999     7.15435132     17.890032799999997
256  8  3    0.040078788     5.48546142     8.44930286     19.948661249999997
257  8  3    0.040078788     4.7381500999999995     6.91639352     20.55395324
258  8  3    0.041578788     3.2803503     6.8309675499999996     18.665893899999997
259  8  3    0.041578788     3.9750656999999996     8.27680204     17.9151258
260  8  3    0.046578788     3.4013205999999996     9.6390224     20.011270969999998
261  8  3    0.046578788     1.9530959999999995     8.9961182     19.22401184
262  8  4    0.11987879     3.3108997999999996     7.71967954408     21.6933008
263  8  4    0.11037879     0.5     8.0504603     20.616672329999997
264  8  4    0.11037879     0.9982555999999994     7.26338716     22.216768799999997
265  9  1    -0.092221212     11.1614677     8.53163337     27.4973997
266  9  1    -0.080521212     9.8674862     8.63882919     26.75822655
267  9  1    -0.079521212     9.2394834     7.268978669999999     26.48779389
268  9  1    -0.079521212     7.9473937999999995     7.546673159999999     25.739136900000002
269  9  1    -0.078521212     7.20394211     6.3059446     25.39532059
270  9  1    -0.078521212     5.951130559999999     6.6301897     24.6398075
271  9  1    -0.079521212     5.031110999999999     7.4975934099999995     25.45255142
272  9  1    -0.076521212     3.7511153999999998     7.8060255519999995     24.6847412
273  9  1    -0.051321212     2.8841694999999996     8.684093129999999     25.54424161
274  9  2    -0.16332121     2.537428     8.006878799999999     26.80430832
275  9  2    -0.22712121     1.2789715     7.75518156     27.1027004
276  9  3    0.032578788     11.9396536     9.0838077     26.9277299
277  9  3    0.032578788     11.507207999999999     7.501703109999999     27.6165321
278  9  3    0.032578788     11.0908923     9.0671383     28.483388
279  9  3    0.038578788     9.9992091     9.136684299999999     25.779239824
280  9  3    0.038578788     9.1287026     9.187977499999999     27.37483
281  9  3    0.039078788     9.9251974     6.6312858     25.932804461
282  9  3    0.039078788     8.978070599999999     6.79630291     27.4518592
283  9  3    0.040078788     8.1260897     8.14577785     24.840668700000002
284  9  3    0.040078788     7.3012264799999995     8.15330328     26.43904576
285  9  3    0.039078788     7.8099247     5.569511199999999     24.8221837
286  9  3    0.039078788     6.9425387     5.7878799999999995     26.36387477
287  9  3    0.039078788     5.461813719999999     5.6998941     24.2923256
288  9  3    0.039078788     6.260334987999999     7.15435132     23.6867104
289  9  3    0.040078788     5.48546142     8.44930286     25.74533885
290  9  3    0.040078788     4.7381500999999995     6.91639352     26.35063084
291  9  3    0.041578788     3.2803503     6.8309675499999996     24.4625715
292  9  3    0.041578788     3.9750656999999996     8.27680204     23.7118034
293  9  3    0.046578788     3.4013205999999996     9.6390224     25.80794857
294  9  3    0.046578788     1.9530959999999995     8.9961182     25.02068944
295  9  4    0.11987879     3.3108997999999996     7.71967954408     27.489978400000002
296  9  4    0.11037879     0.5     8.0504603     26.41334993
297  9  4    0.11037879     0.9982555999999994     7.26338716     28.0134464
298  10  1    -0.092221212     11.1614677     13.60114457     4.3106893
299  10  1    -0.080521212     9.8674862     13.70834039     3.57151615
300  10  1    -0.079521212     9.2394834     12.33848987     3.30108349
301  10  1    -0.079521212     7.9473937999999995     12.61618436     2.5524265
302  10  1    -0.078521212     7.20394211     11.375455800000001     2.20861019
303  10  1    -0.078521212     5.951130559999999     11.6997009     1.4530971
304  10  1    -0.079521212     5.031110999999999     12.567104610000001     2.26584102
305  10  1    -0.076521212     3.7511153999999998     12.875536752     1.4980308
306  10  1    -0.051321212     2.8841694999999996     13.75360433     2.35753121
307  10  2    -0.16332121     2.537428     13.07639     3.6175979199999997
308  10  2    -0.22712121     1.2789715     12.824692760000001     3.91599
309  10  3    0.032578788     11.9396536     14.1533189     3.7410195
310  10  3    0.032578788     11.507207999999999     12.57121431     4.4298217
311  10  3    0.032578788     11.0908923     14.1366495     5.2966776
312  10  3    0.038578788     9.9992091     14.2061955     2.592529424
313  10  3    0.038578788     9.1287026     14.2574887     4.1881196
314  10  3    0.039078788     9.9251974     11.700797000000001     2.746094061
315  10  3    0.039078788     8.978070599999999     11.86581411     4.2651488
316  10  3    0.040078788     8.1260897     13.21528905     1.6539583
317  10  3    0.040078788     7.3012264799999995     13.22281448     3.25233536
318  10  3    0.039078788     7.8099247     10.6390224     1.6354733
319  10  3    0.039078788     6.9425387     10.8573912     3.17716437
320  10  3    0.039078788     5.461813719999999     10.7694053     1.1056152
321  10  3    0.039078788     6.260334987999999     12.22386252     0.5
322  10  3    0.040078788     5.48546142     13.51881406     2.55862845
323  10  3    0.040078788     4.7381500999999995     11.98590472     3.16392044
324  10  3    0.041578788     3.2803503     11.900478750000001     1.2758611
325  10  3    0.041578788     3.9750656999999996     13.34631324     0.525093
326  10  3    0.046578788     3.4013205999999996     14.7085336     2.62123817
327  10  3    0.046578788     1.9530959999999995     14.0656294     1.83397904
328  10  4    0.11987879     3.3108997999999996     12.78919074408     4.303268
329  10  4    0.11037879     0.5     13.1199715     3.22663953
330  10  4    0.11037879     0.9982555999999994     12.33289836     4.826736
331  11  1    -0.092221212     11.1614677     13.60114457     21.700722099999997
332  11  1    -0.080521212     9.8674862     13.70834039     20.961548949999997
333  11  1    -0.079521212     9.2394834     12.33848987     20.691116289999997
334  11  1    -0.079521212     7.9473937999999995     12.61618436     19.9424593
335  11  1    -0.078521212     7.20394211     11.375455800000001     19.59864299
336  11  1    -0.078521212     5.951130559999999     11.6997009     18.843129899999997
337  11  1    -0.079521212     5.031110999999999     12.567104610000001     19.655873819999996
338  11  1    -0.076521212     3.7511153999999998     12.875536752     18.8880636
339  11  1    -0.051321212     2.8841694999999996     13.75360433     19.747564009999998
340  11  2    -0.16332121     2.537428     13.07639     21.007630719999998
341  11  2    -0.22712121     1.2789715     12.824692760000001     21.306022799999997
342  11  3    0.032578788     11.9396536     14.1533189     21.131052299999997
343  11  3    0.032578788     11.507207999999999     12.57121431     21.819854499999998
344  11  3    0.032578788     11.0908923     14.1366495     22.6867104
345  11  3    0.038578788     9.9992091     14.2061955     19.982562224
346  11  3    0.038578788     9.1287026     14.2574887     21.578152399999997
347  11  3    0.039078788     9.9251974     11.700797000000001     20.136126860999997
348  11  3    0.039078788     8.978070599999999     11.86581411     21.6551816
349  11  3    0.040078788     8.1260897     13.21528905     19.0439911
350  11  3    0.040078788     7.3012264799999995     13.22281448     20.642368159999997
351  11  3    0.039078788     7.8099247     10.6390224     19.025506099999998
352  11  3    0.039078788     6.9425387     10.8573912     20.567197169999996
353  11  3    0.039078788     5.461813719999999     10.7694053     18.495648
354  11  3    0.039078788     6.260334987999999     12.22386252     17.890032799999997
355  11  3    0.040078788     5.48546142     13.51881406     19.948661249999997
356  11  3    0.040078788     4.7381500999999995     11.98590472     20.55395324
357  11  3    0.041578788     3.2803503     11.900478750000001     18.665893899999997
358  11  3    0.041578788     3.9750656999999996     13.34631324     17.9151258
359  11  3    0.046578788     3.4013205999999996     14.7085336     20.011270969999998
360  11  3    0.046578788     1.9530959999999995     14.0656294     19.22401184
361  11  4    0.11987879     3.3108997999999996     12.78919074408     21.6933008
362  11  4    0.11037879     0.5     13.1199715     20.616672329999997
363  11  4    0.11037879     0.9982555999999994     12.33289836     22.216768799999997
364  12  1    -0.092221212     11.1614677     13.60114457     27.4973997
365  12  1    -0.080521212     9.8674862     13.70834039     26.75822655
366  12  1    -0.079521212     9.2394834     12.33848987     26.48779389
367  12  1    -0.079521212     7.9473937999999995     12.61618436     25.739136900000002
368  12  1    -0.078521212     7.20394211     11.375455800000001     25.39532059
369  12  1    -0.078521212     5.951130559999999     11.6997009     24.6398075
370  12  1    -0.079521212     5.031110999999999     12.567104610000001     25.45255142
371  12  1    -0.076521212     3.7511153999999998     12.875536752     24.6847412