# This data file is created by manyMolecule.jl

1800 atoms
1700 bonds
3000 angles
3900 dihedrals
600 impropers

4 atom types
5 bond types
4 angle types
9 dihedral types
1 improper types

0.0 38.8080155 xlo xhi
0.0 21.6086555 ylo yhi
0.0 21.2537335 zlo zhi

Masses

1  12.01078
2  12.01078
3  1.007947
4  1.007947

Pair Coeffs

1  0.10884061 3.3795318
2  0.086879315 3.4806469
3  0.015779483 2.6445434
4  0.015611343 2.5725815

Bond Coeffs

1 harmonic 264.62148576755 1.52190126495
2 harmonic 370.04670688625 1.093899492634
3 harmonic 289.73813263395 1.498646816465
4 harmonic 399.1592953295 1.371688562017
5 harmonic 397.2545789619 1.085358495916

Angle Coeffs

1 harmonic 53.20531626545 116.5475862634
2 harmonic 57.8982893754 126.8062420451
3 harmonic 34.066775159195 129.1835929926
4 harmonic 48.776492647595 115.6030999533

Dihedral Coeffs

1 fourier 1 -0.3703352413219 2 0
2 fourier 1 0.02664938770063 3 0
3 fourier 1 5.082239018622 2 180
4 fourier 1 1.654695451548 1 180
5 fourier 1 5.294842998052 2 180
6 fourier 1 0.1155372516788 3 0
7 fourier 1 0.2962286176719 3 180
8 fourier 1 0.007435022645929 1 0
9 fourier 1 0.1911926717192 3 0

Improper Coeffs

1  0.3666666666666667 -1 2

Atoms

1  1  1    -0.091211     1.2403083000000006     2.53995204     2.27791209
2  1  1    -0.050311     2.5499907000000004     2.88093994     1.5386360599999998
3  1  2    -0.174311     3.3212544600000005     1.6365209900000002     1.4957684199999999
4  1  2    -0.174311     4.493494200000001     1.47611544     2.0166095129999997
5  1  1    -0.050311     5.2042283000000005     2.55265277     2.73027667
6  1  1    -0.091211     6.5105675000000005     2.76839635     1.9439273849999998
7  1  3    0.033922     0.5     2.09884791     1.58331191
8  1  3    0.033922     0.8563300000000007     3.5019421     2.67372984
9  1  3    0.033922     1.5270537000000006     1.85330653     3.0975245
10  1  3    0.046089     2.2902523000000006     3.24533801     0.5
11  1  3    0.046089     3.00465893     3.742302     2.0256906669999997
12  1  4    0.121889     2.8702157     0.765029     0.9793569999999998
13  1  4    0.121889     5.0390604     0.5     1.9536191070999998
14  1  3    0.046089     5.4691875     2.17120969     3.7507466999999997
15  1  3    0.046089     4.69150966     3.4863011     2.8758009099999997
16  1  3    0.033922     6.8602854     3.8217311     2.07030243
17  1  3    0.033922     7.2616031     2.08726629     2.34384787
18  1  3    0.033922     6.3411762000000005     2.518356315     0.8770176999999997
19  2  1    -0.091211     1.2403083000000006     2.53995204     10.77940549
20  2  1    -0.050311     2.5499907000000004     2.88093994     10.04012946
21  2  2    -0.174311     3.3212544600000005     1.6365209900000002     9.99726182
22  2  2    -0.174311     4.493494200000001     1.47611544     10.518102913
23  2  1    -0.050311     5.2042283000000005     2.55265277     11.23177007
24  2  1    -0.091211     6.5105675000000005     2.76839635     10.445420785
25  2  3    0.033922     0.5     2.09884791     10.08480531
26  2  3    0.033922     0.8563300000000007     3.5019421     11.17522324
27  2  3    0.033922     1.5270537000000006     1.85330653     11.5990179
28  2  3    0.046089     2.2902523000000006     3.24533801     9.0014934
29  2  3    0.046089     3.00465893     3.742302     10.527184067
30  2  4    0.121889     2.8702157     0.765029     9.4808504
31  2  4    0.121889     5.0390604     0.5     10.455112507099999
32  2  3    0.046089     5.4691875     2.17120969     12.2522401
33  2  3    0.046089     4.69150966     3.4863011     11.37729431
34  2  3    0.033922     6.8602854     3.8217311     10.57179583
35  2  3    0.033922     7.2616031     2.08726629     10.845341269999999
36  2  3    0.033922     6.3411762000000005     2.518356315     9.378511099999999
37  3  1    -0.091211     1.2403083000000006     2.53995204     15.030152189999999
38  3  1    -0.050311     2.5499907000000004     2.88093994     14.290876159999998
39  3  2    -0.174311     3.3212544600000005     1.6365209900000002     14.248008519999999
40  3  2    -0.174311     4.493494200000001     1.47611544     14.768849612999999
41  3  1    -0.050311     5.2042283000000005     2.55265277     15.482516769999998
42  3  1    -0.091211     6.5105675000000005     2.76839635     14.696167484999998
43  3  3    0.033922     0.5     2.09884791     14.335552009999999
44  3  3    0.033922     0.8563300000000007     3.5019421     15.425969939999998
45  3  3    0.033922     1.5270537000000006     1.85330653     15.849764599999999
46  3  3    0.046089     2.2902523000000006     3.24533801     13.252240099999998
47  3  3    0.046089     3.00465893     3.742302     14.777930766999999
48  3  4    0.121889     2.8702157     0.765029     13.731597099999998
49  3  4    0.121889     5.0390604     0.5     14.705859207099998
50  3  3    0.046089     5.4691875     2.17120969     16.5029868
51  3  3    0.046089     4.69150966     3.4863011     15.628041009999999
52  3  3    0.033922     6.8602854     3.8217311     14.822542529999998
53  3  3    0.033922     7.2616031     2.08726629     15.09608797
54  3  3    0.033922     6.3411762000000005     2.518356315     13.629257799999998
55  4  1    -0.091211     1.2403083000000006     6.861683139999999     2.27791209
56  4  1    -0.050311     2.5499907000000004     7.202671039999999     1.5386360599999998
57  4  2    -0.174311     3.3212544600000005     5.958252089999999     1.4957684199999999
58  4  2    -0.174311     4.493494200000001     5.79784654     2.0166095129999997
59  4  1    -0.050311     5.2042283000000005     6.87438387     2.73027667
60  4  1    -0.091211     6.5105675000000005     7.09012745     1.9439273849999998
61  4  3    0.033922     0.5     6.42057901     1.58331191
62  4  3    0.033922     0.8563300000000007     7.8236732     2.67372984
63  4  3    0.033922     1.5270537000000006     6.175037629999999     3.0975245
64  4  3    0.046089     2.2902523000000006     7.567069109999999     0.5
65  4  3    0.046089     3.00465893     8.0640331     2.0256906669999997
66  4  4    0.121889     2.8702157     5.086760099999999     0.9793569999999998
67  4  4    0.121889     5.0390604     4.821731099999999     1.9536191070999998
68  4  3    0.046089     5.4691875     6.49294079     3.7507466999999997
69  4  3    0.046089     4.69150966     7.8080321999999995     2.8758009099999997
70  4  3    0.033922     6.8602854     8.1434622     2.07030243
71  4  3    0.033922     7.2616031     6.40899739     2.34384787
72  4  3    0.033922     6.3411762000000005     6.840087414999999     0.8770176999999997
73  5  1    -0.091211     1.2403083000000006     6.861683139999999     6.528658789999999
74  5  1    -0.050311     2.5499907000000004     7.202671039999999     5.789382759999999
75  5  2    -0.174311     3.3212544600000005     5.958252089999999     5.746515119999999
76  5  2    -0.174311     4.493494200000001     5.79784654     6.267356212999999
77  5  1    -0.050311     5.2042283000000005     6.87438387     6.981023369999999
78  5  1    -0.091211     6.5105675000000005     7.09012745     6.194674084999999
79  5  3    0.033922     0.5     6.42057901     5.834058609999999
80  5  3    0.033922     0.8563300000000007     7.8236732     6.924476539999999
81  5  3    0.033922     1.5270537000000006     6.175037629999999     7.348271199999999
82  5  3    0.046089     2.2902523000000006     7.567069109999999     4.750746699999999
83  5  3    0.046089     3.00465893     8.0640331     6.276437366999999
84  5  4    0.121889     2.8702157     5.086760099999999     5.230103699999999
85  5  4    0.121889     5.0390604     4.821731099999999     6.204365807099999
86  5  3    0.046089     5.4691875     6.49294079     8.0014934
87  5  3    0.046089     4.69150966     7.8080321999999995     7.126547609999999
88  5  3    0.033922     6.8602854     8.1434622     6.321049129999999
89  5  3    0.033922     7.2616031     6.40899739     6.594594569999999
90  5  3    0.033922     6.3411762000000005     6.840087414999999     5.1277643999999984
91  6  1    -0.091211     1.2403083000000006     6.861683139999999     19.28089889
92  6  1    -0.050311     2.5499907000000004     7.202671039999999     18.54162286
93  6  2    -0.174311     3.3212544600000005     5.958252089999999     18.49875522
94  6  2    -0.174311     4.493494200000001     5.79784654     19.019596312999997
95  6  1    -0.050311     5.2042283000000005     6.87438387     19.733263469999997
96  6  1    -0.091211     6.5105675000000005     7.09012745     18.946914184999997
97  6  3    0.033922     0.5     6.42057901     18.586298709999998
98  6  3    0.033922     0.8563300000000007     7.8236732     19.67671664
99  6  3    0.033922     1.5270537000000006     6.175037629999999     20.100511299999997
100  6  3    0.046089     2.2902523000000006     7.567069109999999     17.5029868
101  6  3    0.046089     3.00465893     8.0640331     19.028677466999998
102  6  4    0.121889     2.8702157     5.086760099999999     17.9823438
103  6  4    0.121889     5.0390604     4.821731099999999     18.9566059071
104  6  3    0.046089     5.4691875     6.49294079     20.7537335
105  6  3    0.046089     4.69150966     7.8080321999999995     19.878787709999997
106  6  3    0.033922     6.8602854     8.1434622     19.07328923
107  6  3    0.033922     7.2616031     6.40899739     19.34683467
108  6  3    0.033922     6.3411762000000005     6.840087414999999     17.8800045
109  7  1    -0.091211     1.2403083000000006     11.183414240000001     2.27791209
110  7  1    -0.050311     2.5499907000000004     11.524402140000001     1.5386360599999998
111  7  2    -0.174311     3.3212544600000005     10.279983190000001     1.4957684199999999
112  7  2    -0.174311     4.493494200000001     10.119577640000001     2.0166095129999997
113  7  1    -0.050311     5.2042283000000005     11.19611497     2.73027667
114  7  1    -0.091211     6.5105675000000005     11.41185855     1.9439273849999998
115  7  3    0.033922     0.5     10.74231011     1.58331191
116  7  3    0.033922     0.8563300000000007     12.145404300000001     2.67372984
117  7  3    0.033922     1.5270537000000006     10.496768730000001     3.0975245
118  7  3    0.046089     2.2902523000000006     11.888800210000001     0.5
119  7  3    0.046089     3.00465893     12.3857642     2.0256906669999997
120  7  4    0.121889     2.8702157     9.4084912     0.9793569999999998
121  7  4    0.121889     5.0390604     9.1434622     1.9536191070999998
122  7  3    0.046089     5.4691875     10.814671890000001     3.7507466999999997
123  7  3    0.046089     4.69150966     12.1297633     2.8758009099999997
124  7  3    0.033922     6.8602854     12.465193300000001     2.07030243
125  7  3    0.033922     7.2616031     10.73072849     2.34384787
126  7  3    0.033922     6.3411762000000005     11.161818515     0.8770176999999997
127  8  1    -0.091211     1.2403083000000006     11.183414240000001     10.77940549
128  8  1    -0.050311     2.5499907000000004     11.524402140000001     10.04012946
129  8  2    -0.174311     3.3212544600000005     10.279983190000001     9.99726182
130  8  2    -0.174311     4.493494200000001     10.119577640000001     10.518102913
131  8  1    -0.050311     5.2042283000000005     11.19611497     11.23177007
132  8  1    -0.091211     6.5105675000000005     11.41185855     10.445420785
133  8  3    0.033922     0.5     10.74231011     10.08480531
134  8  3    0.033922     0.8563300000000007     12.145404300000001     11.17522324
135  8  3    0.033922     1.5270537000000006     10.496768730000001     11.5990179
136  8  3    0.046089     2.2902523000000006     11.888800210000001     9.0014934
137  8  3    0.046089     3.00465893     12.3857642     10.527184067
138  8  4    0.121889     2.8702157     9.4084912     9.4808504
139  8  4    0.121889     5.0390604     9.1434622     10.455112507099999
140  8  3    0.046089     5.4691875     10.814671890000001     12.2522401
141  8  3    0.046089     4.69150966     12.1297633     11.37729431
142  8  3    0.033922     6.8602854     12.465193300000001     10.57179583
143  8  3    0.033922     7.2616031     10.73072849     10.845341269999999
144  8  3    0.033922     6.3411762000000005     11.161818515     9.378511099999999
145  9  1    -0.091211     1.2403083000000006     11.183414240000001     15.030152189999999
146  9  1    -0.050311     2.5499907000000004     11.524402140000001     14.290876159999998
147  9  2    -0.174311     3.3212544600000005     10.279983190000001     14.248008519999999
148  9  2    -0.174311     4.493494200000001     10.119577640000001     14.768849612999999
149  9  1    -0.050311     5.2042283000000005     11.19611497     15.482516769999998
150  9  1    -0.091211     6.5105675000000005     11.41185855     14.696167484999998
151  9  3    0.033922     0.5     10.74231011     14.335552009999999
152  9  3    0.033922     0.8563300000000007     12.145404300000001     15.425969939999998
153  9  3    0.033922     1.5270537000000006     10.496768730000001     15.849764599999999
154  9  3    0.046089     2.2902523000000006     11.888800210000001     13.252240099999998
155  9  3    0.046089     3.00465893     12.3857642     14.777930766999999
156  9  4    0.121889     2.8702157     9.4084912     13.731597099999998
157  9  4    0.121889     5.0390604     9.1434622     14.705859207099998
158  9  3    0.046089     5.4691875     10.814671890000001     16.5029868
159  9  3    0.046089     4.69150966     12.1297633     15.628041009999999
160  9  3    0.033922     6.8602854     12.465193300000001     14.822542529999998
161  9  3    0.033922     7.2616031     10.73072849     15.09608797
162  9  3    0.033922     6.3411762000000005     11.161818515     13.629257799999998
163  10  1    -0.091211     1.2403083000000006     11.183414240000001     19.28089889
164  10  1    -0.050311     2.5499907000000004     11.524402140000001     18.54162286
165  10  2    -0.174311     3.3212544600000005     10.279983190000001     18.49875522
166  10  2    -0.174311     4.493494200000001     10.119577640000001     19.019596312999997
167  10  1    -0.050311     5.2042283000000005     11.19611497     19.733263469999997
168  10  1    -0.091211     6.5105675000000005     11.41185855     18.946914184999997
169  10  3    0.033922     0.5     10.74231011     18.586298709999998
170  10  3    0.033922     0.8563300000000007     12.145404300000001     19.67671664
171  10  3    0.033922     1.5270537000000006     10.496768730000001     20.100511299999997
172  10  3    0.046089     2.2902523000000006     11.888800210000001     17.5029868
173  10  3    0.046089     3.00465893     12.3857642     19.028677466999998
174  10  4    0.121889     2.8702157     9.4084912     17.9823438
175  10  4    0.121889     5.0390604     9.1434622     18.9566059071
176  10  3    0.046089     5.4691875     10.814671890000001     20.7537335
177  10  3    0.046089     4.69150966     12.1297633     19.878787709999997
178  10  3    0.033922     6.8602854     12.465193300000001     19.07328923
179  10  3    0.033922     7.2616031     10.73072849     19.34683467
180  10  3    0.033922     6.3411762000000005     11.161818515     17.8800045
181  11  1    -0.091211     1.2403083000000006     15.50514534     2.27791209
182  11  1    -0.050311     2.5499907000000004     15.84613324     1.5386360599999998
183  11  2    -0.174311     3.3212544600000005     14.60171429     1.4957684199999999
184  11  2    -0.174311     4.493494200000001     14.44130874     2.0166095129999997
185  11  1    -0.050311     5.2042283000000005     15.51784607     2.73027667
186  11  1    -0.091211     6.5105675000000005     15.733589649999999     1.9439273849999998
187  11  3    0.033922     0.5     15.06404121     1.58331191
188  11  3    0.033922     0.8563300000000007     16.4671354     2.67372984
189  11  3    0.033922     1.5270537000000006     14.81849983     3.0975245
190  11  3    0.046089     2.2902523000000006     16.21053131     0.5
191  11  3    0.046089     3.00465893     16.707495299999998     2.0256906669999997
192  11  4    0.121889     2.8702157     13.7302223     0.9793569999999998
193  11  4    0.121889     5.0390604     13.4651933     1.9536191070999998
194  11  3    0.046089     5.4691875     15.13640299     3.7507466999999997
195  11  3    0.046089     4.69150966     16.4514944     2.8758009099999997
196  11  3    0.033922     6.8602854     16.7869244     2.07030243
197  11  3    0.033922     7.2616031     15.05245959     2.34384787
198  11  3    0.033922     6.3411762000000005     15.483549615     0.8770176999999997
199  12  1    -0.091211     1.2403083000000006     15.50514534     6.528658789999999
200  12  1    -0.050311     2.5499907000000004     15.84613324     5.789382759999999
201  12  2    -0.174311     3.3212544600000005     14.60171429     5.746515119999999
202  12  2    -0.174311     4.493494200000001     14.44130874     6.267356212999999
203  12  1    -0.050311     5.2042283000000005     15.51784607     6.981023369999999
204  12  1    -0.091211     6.5105675000000005     15.733589649999999     6.194674084999999
205  12  3    0.033922     0.5     15.06404121     5.834058609999999
206  12  3    0.033922     0.8563300000000007     16.4671354     6.924476539999999
207  12  3    0.033922     1.5270537000000006     14.81849983     7.348271199999999
208  12  3    0.046089     2.2902523000000006     16.21053131     4.750746699999999
209  12  3    0.046089     3.00465893     16.707495299999998     6.276437366999999
210  12  4    0.121889     2.8702157     13.7302223     5.230103699999999
211  12  4    0.121889     5.0390604     13.4651933     6.204365807099999
212  12  3    0.046089     5.4691875     15.13640299     8.0014934
213  12  3    0.046089     4.69150966     16.4514944     7.126547609999999
214  12  3    0.033922     6.8602854     16.7869244     6.321049129999999
215  12  3    0.033922     7.2616031     15.05245959     6.594594569999999
216  12  3    0.033922     6.3411762000000005     15.483549615     5.1277643999999984
217  13  1    -0.091211     1.2403083000000006     15.50514534     10.77940549
218  13  1    -0.050311     2.5499907000000004     15.84613324     10.04012946
219  13  2    -0.174311     3.3212544600000005     14.60171429     9.99726182
220  13  2    -0.174311     4.493494200000001     14.44130874     10.518102913
221  13  1    -0.050311     5.2042283000000005     15.51784607     11.23177007
222  13  1    -0.091211     6.5105675000000005     15.733589649999999     10.445420785
223  13  3    0.033922     0.5     15.06404121     10.08480531
224  13  3    0.033922     0.8563300000000007     16.4671354     11.17522324
225  13  3    0.033922     1.5270537000000006     14.81849983     11.5990179
226  13  3    0.046089     2.2902523000000006     16.21053131     9.0014934
227  13  3    0.046089     3.00465893     16.707495299999998     10.527184067
228  13  4    0.121889     2.8702157     13.7302223     9.4808504
229  13  4    0.121889     5.0390604     13.4651933     10.455112507099999
230  13  3    0.046089     5.4691875     15.13640299     12.2522401
231  13  3    0.046089     4.69150966     16.4514944     11.37729431
232  13  3    0.033922     6.8602854     16.7869244     10.57179583
233  13  3    0.033922     7.2616031     15.05245959     10.845341269999999
234  13  3    0.033922     6.3411762000000005     15.483549615     9.378511099999999
235  14  1    -0.091211     1.2403083000000006     15.50514534     15.030152189999999
236  14  1    -0.050311     2.5499907000000004     15.84613324     14.290876159999998
237  14  2    -0.174311     3.3212544600000005     14.60171429     14.248008519999999
238  14  2    -0.174311     4.493494200000001     14.44130874     14.768849612999999
239  14  1    -0.050311     5.2042283000000005     15.51784607     15.482516769999998
240  14  1    -0.091211     6.5105675000000005     15.733589649999999     14.696167484999998
241  14  3    0.033922     0.5     15.06404121     14.335552009999999
242  14  3    0.033922     0.8563300000000007     16.4671354     15.425969939999998
243  14  3    0.033922     1.5270537000000006     14.81849983     15.849764599999999
244  14  3    0.046089     2.2902523000000006     16.21053131     13.252240099999998
245  14  3    0.046089     3.00465893     16.707495299999998     14.777930766999999
246  14  4    0.121889     2.8702157     13.7302223     13.731597099999998
247  14  4    0.121889     5.0390604     13.4651933     14.705859207099998
248  14  3    0.046089     5.4691875     15.13640299     16.5029868
249  14  3    0.046089     4.69150966     16.4514944     15.628041009999999
250  14  3    0.033922     6.8602854     16.7869244     14.822542529999998
251  14  3    0.033922     7.2616031     15.05245959     15.09608797
252  14  3    0.033922     6.3411762000000005     15.483549615     13.629257799999998
253  15  1    -0.091211     1.2403083000000006     15.50514534     19.28089889
254  15  1    -0.050311     2.5499907000000004     15.84613324     18.54162286
255  15  2    -0.174311     3.3212544600000005     14.60171429     18.49875522
256  15  2    -0.174311     4.493494200000001     14.44130874     19.019596312999997
257  15  1    -0.050311     5.2042283000000005     15.51784607     19.733263469999997
258  15  1    -0.091211     6.5105675000000005     15.733589649999999     18.946914184999997
259  15  3    0.033922     0.5     15.06404121     18.586298709999998
260  15  3    0.033922     0.8563300000000007     16.4671354     19.67671664
261  15  3    0.033922     1.5270537000000006     14.81849983     20.100511299999997
262  15  3    0.046089     2.2902523000000006     16.21053131     17.5029868
263  15  3    0.046089     3.00465893     16.707495299999998     19.028677466999998
264  15  4    0.121889     2.8702157     13.7302223     17.9823438
265  15  4    0.121889     5.0390604     13.4651933     18.9566059071
266  15  3    0.046089     5.4691875     15.13640299     20.7537335
267  15  3    0.046089     4.69150966     16.4514944     19.878787709999997
268  15  3    0.033922     6.8602854     16.7869244     19.07328923
269  15  3    0.033922     7.2616031     15.05245959     19.34683467
270  15  3    0.033922     6.3411762000000005     15.483549615     17.8800045
271  16  1    -0.091211     1.2403083000000006     19.82687644     10.77940549
272  16  1    -0.050311     2.5499907000000004     20.16786434     10.04012946
273  16  2    -0.174311     3.3212544600000005     18.92344539     9.99726182
274  16  2    -0.174311     4.493494200000001     18.76303984     10.518102913
275  16  1    -0.050311     5.2042283000000005     19.839577170000002     11.23177007
276  16  1    -0.091211     6.5105675000000005     20.05532075     10.445420785
277  16  3    0.033922     0.5     19.38577231     10.08480531
278  16  3    0.033922     0.8563300000000007     20.7888665     11.17522324
279  16  3    0.033922     1.5270537000000006     19.14023093     11.5990179
280  16  3    0.046089     2.2902523000000006     20.53226241     9.0014934
281  16  3    0.046089     3.00465893     21.0292264     10.527184067
282  16  4    0.121889     2.8702157     18.051953400000002     9.4808504
283  16  4    0.121889     5.0390604     17.7869244     10.455112507099999
284  16  3    0.046089     5.4691875     19.45813409     12.2522401
285  16  3    0.046089     4.69150966     20.773225500000002     11.37729431
286  16  3    0.033922     6.8602854     21.1086555     10.57179583
287  16  3    0.033922     7.2616031     19.37419069     10.845341269999999
288  16  3    0.033922     6.3411762000000005     19.805280715000002     9.378511099999999
289  17  1    -0.091211     1.2403083000000006     19.82687644     15.030152189999999
290  17  1    -0.050311     2.5499907000000004     20.16786434     14.290876159999998
291  17  2    -0.174311     3.3212544600000005     18.92344539     14.248008519999999
292  17  2    -0.174311     4.493494200000001     18.76303984     14.768849612999999
293  17  1    -0.050311     5.2042283000000005     19.839577170000002     15.482516769999998
294  17  1    -0.091211     6.5105675000000005     20.05532075     14.696167484999998
295  17  3    0.033922     0.5     19.38577231     14.335552009999999
296  17  3    0.033922     0.8563300000000007     20.7888665     15.425969939999998
297  17  3    0.033922     1.5270537000000006     19.14023093     15.849764599999999
298  17  3    0.046089     2.2902523000000006     20.53226241     13.252240099999998
299  17  3    0.046089     3.00465893     21.0292264     14.777930766999999
300  17  4    0.121889     2.8702157     18.051953400000002     13.731597099999998
301  17  4    0.121889     5.0390604     17.7869244     14.705859207099998
302  17  3    0.046089     5.4691875     19.45813409     16.5029868
303  17  3    0.046089     4.69150966     20.773225500000002     15.628041009999999
304  17  3    0.033922     6.8602854     21.1086555     14.822542529999998
305  17  3    0.033922     7.2616031     19.37419069     15.09608797
306  17  3    0.033922     6.3411762000000005     19.805280715000002     13.629257799999998
307  18  1    -0.091211     1.2403083000000006     19.82687644     19.28089889
308  18  1    -0.050311     2.5499907000000004     20.16786434     18.54162286
309  18  2    -0.174311     3.3212544600000005     18.92344539     18.49875522
310  18  2    -0.174311     4.493494200000001     18.76303984     19.019596312999997
311  18  1    -0.050311     5.2042283000000005     19.839577170000002     19.733263469999997
312  18  1    -0.091211     6.5105675000000005     20.05532075     18.946914184999997
313  18  3    0.033922     0.5     19.38577231     18.586298709999998
314  18  3    0.033922     0.8563300000000007     20.7888665     19.67671664
315  18  3    0.033922     1.5270537000000006     19.14023093     20.100511299999997
316  18  3    0.046089     2.2902523000000006     20.53226241     17.5029868
317  18  3    0.046089     3.00465893     21.0292264     19.028677466999998
318  18  4    0.121889     2.8702157     18.051953400000002     17.9823438
319  18  4    0.121889     5.0390604     17.7869244     18.9566059071
320  18  3    0.046089     5.4691875     19.45813409     20.7537335
321  18  3    0.046089     4.69150966     20.773225500000002     19.878787709999997
322  18  3    0.033922     6.8602854     21.1086555     19.07328923
323  18  3    0.033922     7.2616031     19.37419069     19.34683467
324  18  3    0.033922     6.3411762000000005     19.805280715000002     17.8800045
325  19  1    -0.091211     9.001911400000001     2.53995204     2.27791209
326  19  1    -0.050311     10.311593799999999     2.88093994     1.5386360599999998
327  19  2    -0.174311     11.082857559999999     1.6365209900000002     1.4957684199999999
328  19  2    -0.174311     12.2550973     1.47611544     2.0166095129999997
329  19  1    -0.050311     12.965831399999999     2.55265277     2.73027667
330  19  1    -0.091211     14.272170599999999     2.76839635     1.9439273849999998
331  19  3    0.033922     8.261603099999999     2.09884791     1.58331191
332  19  3    0.033922     8.6179331     3.5019421     2.67372984
333  19  3    0.033922     9.2886568     1.85330653     3.0975245
334  19  3    0.046089     10.051855399999999     3.24533801     0.5
335  19  3    0.046089     10.76626203     3.742302     2.0256906669999997
336  19  4    0.121889     10.6318188     0.765029     0.9793569999999998
337  19  4    0.121889     12.800663499999999     0.5     1.9536191070999998
338  19  3    0.046089     13.230790599999999     2.17120969     3.7507466999999997
339  19  3    0.046089     12.45311276     3.4863011     2.8758009099999997
340  19  3    0.033922     14.6218885     3.8217311     2.07030243
341  19  3    0.033922     15.0232062     2.08726629     2.34384787
342  19  3    0.033922     14.1027793     2.518356315     0.8770176999999997
343  20  1    -0.091211     9.001911400000001     2.53995204     6.528658789999999
344  20  1    -0.050311     10.311593799999999     2.88093994     5.789382759999999
345  20  2    -0.174311     11.082857559999999     1.6365209900000002     5.746515119999999
346  20  2    -0.174311     12.2550973     1.47611544     6.267356212999999
347  20  1    -0.050311     12.965831399999999     2.55265277     6.981023369999999
348  20  1    -0.091211     14.272170599999999     2.76839635     6.194674084999999
349  20  3    0.033922     8.261603099999999     2.09884791     5.834058609999999
350  20  3    0.033922     8.6179331     3.5019421     6.924476539999999
351  20  3    0.033922     9.2886568     1.85330653     7.348271199999999
352  20  3    0.046089     10.051855399999999     3.24533801     4.750746699999999
353  20  3    0.046089     10.76626203     3.742302     6.276437366999999
354  20  4    0.121889     10.6318188     0.765029     5.230103699999999
355  20  4    0.121889     12.800663499999999     0.5     6.204365807099999
356  20  3    0.046089     13.230790599999999     2.17120969     8.0014934
357  20  3    0.046089     12.45311276     3.4863011     7.126547609999999
358  20  3    0.033922     14.6218885     3.8217311     6.321049129999999
359  20  3    0.033922     15.0232062     2.08726629     6.594594569999999
360  20  3    0.033922     14.1027793     2.518356315     5.1277643999999984
361  21  1    -0.091211     9.001911400000001     2.53995204     10.77940549
362  21  1    -0.050311     10.311593799999999     2.88093994     10.04012946
363  21  2    -0.174311     11.082857559999999     1.6365209900000002     9.99726182
364  21  2    -0.174311     12.2550973     1.47611544     10.518102913
365  21  1    -0.050311     12.965831399999999     2.55265277     11.23177007
366  21  1    -0.091211     14.272170599999999     2.76839635     10.445420785
367  21  3    0.033922     8.261603099999999     2.09884791     10.08480531
368  21  3    0.033922     8.6179331     3.5019421     11.17522324
369  21  3    0.033922     9.2886568     1.85330653     11.5990179
370  21  3    0.046089     10.051855399999999     3.24533801     9.0014934