# This data file is created by manyMolecule.jl

8000 atoms
7600 bonds
14400 angles
20400 dihedrals
0 impropers

2 atom types
2 bond types
2 angle types
5 dihedral types
0 improper types

0.0 70.142764 xlo xhi
0.0 30.957776799999998 ylo yhi
0.0 28.775171999999998 zlo zhi
0.0 0.0 0.0 xy xz yz

Masses

1  12.01078
2  1.007947

Pair Coeffs

1  0.10884061 3.3795318
2  0.015779483 2.6445434

Bond Coeffs

1 harmonic 264.62148576755 1.52190126495
2 harmonic 370.04670688625 1.093899492634

Angle Coeffs

1 harmonic 53.20531626545 116.5475862634
2 harmonic 48.776492647595 115.6030999533

Dihedral Coeffs

1 fourier 1 0.09223874044423 3 0
2 fourier 1 0.3159935921949 2 180
3 fourier 1 0.3247796806857 1 180
4 fourier 1 0.1040663847541 3 0
5 fourier 1 0.1911926717192 3 0

Atoms

1  1  1    -0.0922     1.3458737000000003     1.73740125     1.875086901
2  1  1    -0.0805     2.6216439000000005     2.53230963     2.05524104
3  1  1    -0.0795     3.77245725     1.6216731899999999     1.7259319499999999
4  1  1    -0.0795     5.11059588     2.3496908999999997     1.882970131
5  1  1    -0.0805     6.1742359     1.3410759199999998     1.52833204
6  1  1    -0.0922     7.5603427     1.889349725     1.62880455
7  1  2    0.0326     1.5533990000000002     0.7231231999999999     2.3272644199999997
8  1  2    0.0326     0.5     2.14997091     2.46036972
9  1  2    0.0326     1.0953664     1.6023543299999998     0.7985747
10  1  2    0.0386     2.6598573     2.86579675     3.0968964999999997
11  1  2    0.0386     2.6507127     3.3697220999999997     1.32297374
12  1  2    0.0386     3.71523819     0.7458307     2.38042797
13  1  2    0.0386     3.7128827500000003     1.29813978     0.6771802999999998
14  1  2    0.0386     5.1772342     3.19484     1.16695808
15  1  2    0.0386     5.22645607     2.7636040499999996     2.8984156
16  1  2    0.0386     6.0863438     0.5     2.24126648
17  1  2    0.0386     5.9868533     1.0080020699999999     0.5
18  1  2    0.0326     7.7204837     2.19328924     2.69599128
19  1  2    0.0326     7.793669700000001     2.6792698799999997     0.9111731599999999
20  1  2    0.0326     8.2678455     1.05677056     1.44548934
21  2  1    -0.0922     1.3458737000000003     1.73740125     5.471983400999999
22  2  1    -0.0805     2.6216439000000005     2.53230963     5.65213754
23  2  1    -0.0795     3.77245725     1.6216731899999999     5.322828449999999
24  2  1    -0.0795     5.11059588     2.3496908999999997     5.479866630999999
25  2  1    -0.0805     6.1742359     1.3410759199999998     5.125228539999999
26  2  1    -0.0922     7.5603427     1.889349725     5.22570105
27  2  2    0.0326     1.5533990000000002     0.7231231999999999     5.924160919999999
28  2  2    0.0326     0.5     2.14997091     6.05726622
29  2  2    0.0326     1.0953664     1.6023543299999998     4.395471199999999
30  2  2    0.0386     2.6598573     2.86579675     6.693792999999999
31  2  2    0.0386     2.6507127     3.3697220999999997     4.91987024
32  2  2    0.0386     3.71523819     0.7458307     5.977324469999999
33  2  2    0.0386     3.7128827500000003     1.29813978     4.2740768
34  2  2    0.0386     5.1772342     3.19484     4.763854579999999
35  2  2    0.0386     5.22645607     2.7636040499999996     6.4953121
36  2  2    0.0386     6.0863438     0.5     5.83816298
37  2  2    0.0386     5.9868533     1.0080020699999999     4.0968965
38  2  2    0.0326     7.7204837     2.19328924     6.29288778
39  2  2    0.0326     7.793669700000001     2.6792698799999997     4.508069659999999
40  2  2    0.0326     8.2678455     1.05677056     5.04238584
41  3  1    -0.0922     1.3458737000000003     1.73740125     12.665776400999999
42  3  1    -0.0805     2.6216439000000005     2.53230963     12.84593054
43  3  1    -0.0795     3.77245725     1.6216731899999999     12.516621449999999
44  3  1    -0.0795     5.11059588     2.3496908999999997     12.673659631
45  3  1    -0.0805     6.1742359     1.3410759199999998     12.31902154
46  3  1    -0.0922     7.5603427     1.889349725     12.419494049999999
47  3  2    0.0326     1.5533990000000002     0.7231231999999999     13.11795392
48  3  2    0.0326     0.5     2.14997091     13.251059219999998
49  3  2    0.0326     1.0953664     1.6023543299999998     11.589264199999999
50  3  2    0.0386     2.6598573     2.86579675     13.887585999999999
51  3  2    0.0386     2.6507127     3.3697220999999997     12.11366324
52  3  2    0.0386     3.71523819     0.7458307     13.171117469999999
53  3  2    0.0386     3.7128827500000003     1.29813978     11.467869799999999
54  3  2    0.0386     5.1772342     3.19484     11.95764758
55  3  2    0.0386     5.22645607     2.7636040499999996     13.689105099999999
56  3  2    0.0386     6.0863438     0.5     13.03195598
57  3  2    0.0386     5.9868533     1.0080020699999999     11.2906895
58  3  2    0.0326     7.7204837     2.19328924     13.486680779999999
59  3  2    0.0326     7.793669700000001     2.6792698799999997     11.70186266
60  3  2    0.0326     8.2678455     1.05677056     12.23617884
61  4  1    -0.0922     1.3458737000000003     1.73740125     16.262672901
62  4  1    -0.0805     2.6216439000000005     2.53230963     16.442827039999997
63  4  1    -0.0795     3.77245725     1.6216731899999999     16.11351795
64  4  1    -0.0795     5.11059588     2.3496908999999997     16.270556131
65  4  1    -0.0805     6.1742359     1.3410759199999998     15.91591804
66  4  1    -0.0922     7.5603427     1.889349725     16.01639055
67  4  2    0.0326     1.5533990000000002     0.7231231999999999     16.714850419999998
68  4  2    0.0326     0.5     2.14997091     16.847955719999998
69  4  2    0.0326     1.0953664     1.6023543299999998     15.186160699999999
70  4  2    0.0386     2.6598573     2.86579675     17.4844825
71  4  2    0.0386     2.6507127     3.3697220999999997     15.710559739999999
72  4  2    0.0386     3.71523819     0.7458307     16.76801397
73  4  2    0.0386     3.7128827500000003     1.29813978     15.064766299999999
74  4  2    0.0386     5.1772342     3.19484     15.55454408
75  4  2    0.0386     5.22645607     2.7636040499999996     17.2860016
76  4  2    0.0386     6.0863438     0.5     16.62885248
77  4  2    0.0386     5.9868533     1.0080020699999999     14.887585999999999
78  4  2    0.0326     7.7204837     2.19328924     17.08357728
79  4  2    0.0326     7.793669700000001     2.6792698799999997     15.29875916
80  4  2    0.0326     8.2678455     1.05677056     15.833075339999999
81  5  1    -0.0922     1.3458737000000003     1.73740125     19.859569400999998
82  5  1    -0.0805     2.6216439000000005     2.53230963     20.039723539999997
83  5  1    -0.0795     3.77245725     1.6216731899999999     19.71041445
84  5  1    -0.0795     5.11059588     2.3496908999999997     19.867452631
85  5  1    -0.0805     6.1742359     1.3410759199999998     19.512814539999997
86  5  1    -0.0922     7.5603427     1.889349725     19.61328705
87  5  2    0.0326     1.5533990000000002     0.7231231999999999     20.311746919999997
88  5  2    0.0326     0.5     2.14997091     20.444852219999998
89  5  2    0.0326     1.0953664     1.6023543299999998     18.7830572
90  5  2    0.0386     2.6598573     2.86579675     21.081379
91  5  2    0.0386     2.6507127     3.3697220999999997     19.307456239999997
92  5  2    0.0386     3.71523819     0.7458307     20.364910469999998
93  5  2    0.0386     3.7128827500000003     1.29813978     18.6616628
94  5  2    0.0386     5.1772342     3.19484     19.15144058
95  5  2    0.0386     5.22645607     2.7636040499999996     20.8828981
96  5  2    0.0386     6.0863438     0.5     20.22574898
97  5  2    0.0386     5.9868533     1.0080020699999999     18.4844825
98  5  2    0.0326     7.7204837     2.19328924     20.68047378
99  5  2    0.0326     7.793669700000001     2.6792698799999997     18.89565566
100  5  2    0.0326     8.2678455     1.05677056     19.42997184
101  6  1    -0.0922     1.3458737000000003     1.73740125     23.456465900999998
102  6  1    -0.0805     2.6216439000000005     2.53230963     23.636620039999997
103  6  1    -0.0795     3.77245725     1.6216731899999999     23.307310949999998
104  6  1    -0.0795     5.11059588     2.3496908999999997     23.464349131
105  6  1    -0.0805     6.1742359     1.3410759199999998     23.109711039999997
106  6  1    -0.0922     7.5603427     1.889349725     23.21018355
107  6  2    0.0326     1.5533990000000002     0.7231231999999999     23.908643419999997
108  6  2    0.0326     0.5     2.14997091     24.041748719999998
109  6  2    0.0326     1.0953664     1.6023543299999998     22.379953699999998
110  6  2    0.0386     2.6598573     2.86579675     24.678275499999998
111  6  2    0.0386     2.6507127     3.3697220999999997     22.904352739999997
112  6  2    0.0386     3.71523819     0.7458307     23.961806969999998
113  6  2    0.0386     3.7128827500000003     1.29813978     22.258559299999998
114  6  2    0.0386     5.1772342     3.19484     22.74833708
115  6  2    0.0386     5.22645607     2.7636040499999996     24.479794599999998
116  6  2    0.0386     6.0863438     0.5     23.82264548
117  6  2    0.0386     5.9868533     1.0080020699999999     22.081379
118  6  2    0.0326     7.7204837     2.19328924     24.27737028
119  6  2    0.0326     7.793669700000001     2.6792698799999997     22.49255216
120  6  2    0.0326     8.2678455     1.05677056     23.02686834
121  7  1    -0.0922     1.3458737000000003     1.73740125     27.053362400999998
122  7  1    -0.0805     2.6216439000000005     2.53230963     27.233516539999997
123  7  1    -0.0795     3.77245725     1.6216731899999999     26.904207449999998
124  7  1    -0.0795     5.11059588     2.3496908999999997     27.061245631
125  7  1    -0.0805     6.1742359     1.3410759199999998     26.706607539999997
126  7  1    -0.0922     7.5603427     1.889349725     26.80708005
127  7  2    0.0326     1.5533990000000002     0.7231231999999999     27.505539919999997
128  7  2    0.0326     0.5     2.14997091     27.638645219999997
129  7  2    0.0326     1.0953664     1.6023543299999998     25.976850199999998
130  7  2    0.0386     2.6598573     2.86579675     28.275171999999998
131  7  2    0.0386     2.6507127     3.3697220999999997     26.501249239999996
132  7  2    0.0386     3.71523819     0.7458307     27.558703469999998
133  7  2    0.0386     3.7128827500000003     1.29813978     25.855455799999998
134  7  2    0.0386     5.1772342     3.19484     26.34523358
135  7  2    0.0386     5.22645607     2.7636040499999996     28.076691099999998
136  7  2    0.0386     6.0863438     0.5     27.419541979999998
137  7  2    0.0386     5.9868533     1.0080020699999999     25.678275499999998
138  7  2    0.0326     7.7204837     2.19328924     27.87426678
139  7  2    0.0326     7.793669700000001     2.6792698799999997     26.08944866
140  7  2    0.0326     8.2678455     1.05677056     26.62376484
141  8  1    -0.0922     1.3458737000000003     5.607123349999999     1.875086901
142  8  1    -0.0805     2.6216439000000005     6.402031729999999     2.05524104
143  8  1    -0.0795     3.77245725     5.491395289999999     1.7259319499999999
144  8  1    -0.0795     5.11059588     6.219412999999999     1.882970131
145  8  1    -0.0805     6.1742359     5.2107980199999995     1.52833204
146  8  1    -0.0922     7.5603427     5.7590718249999995     1.62880455
147  8  2    0.0326     1.5533990000000002     4.592845299999999     2.3272644199999997
148  8  2    0.0326     0.5     6.019693009999999     2.46036972
149  8  2    0.0326     1.0953664     5.4720764299999995     0.7985747
150  8  2    0.0386     2.6598573     6.735518849999999     3.0968964999999997
151  8  2    0.0386     2.6507127     7.239444199999999     1.32297374
152  8  2    0.0386     3.71523819     4.6155528     2.38042797
153  8  2    0.0386     3.7128827500000003     5.167861879999999     0.6771802999999998
154  8  2    0.0386     5.1772342     7.0645621     1.16695808
155  8  2    0.0386     5.22645607     6.633326149999999     2.8984156
156  8  2    0.0386     6.0863438     4.369722099999999     2.24126648
157  8  2    0.0386     5.9868533     4.877724169999999     0.5
158  8  2    0.0326     7.7204837     6.063011339999999     2.69599128
159  8  2    0.0326     7.793669700000001     6.548991979999999     0.9111731599999999
160  8  2    0.0326     8.2678455     4.926492659999999     1.44548934
161  9  1    -0.0922     1.3458737000000003     5.607123349999999     5.471983400999999
162  9  1    -0.0805     2.6216439000000005     6.402031729999999     5.65213754
163  9  1    -0.0795     3.77245725     5.491395289999999     5.322828449999999
164  9  1    -0.0795     5.11059588     6.219412999999999     5.479866630999999
165  9  1    -0.0805     6.1742359     5.2107980199999995     5.125228539999999
166  9  1    -0.0922     7.5603427     5.7590718249999995     5.22570105
167  9  2    0.0326     1.5533990000000002     4.592845299999999     5.924160919999999
168  9  2    0.0326     0.5     6.019693009999999     6.05726622
169  9  2    0.0326     1.0953664     5.4720764299999995     4.395471199999999
170  9  2    0.0386     2.6598573     6.735518849999999     6.693792999999999
171  9  2    0.0386     2.6507127     7.239444199999999     4.91987024
172  9  2    0.0386     3.71523819     4.6155528     5.977324469999999
173  9  2    0.0386     3.7128827500000003     5.167861879999999     4.2740768
174  9  2    0.0386     5.1772342     7.0645621     4.763854579999999
175  9  2    0.0386     5.22645607     6.633326149999999     6.4953121
176  9  2    0.0386     6.0863438     4.369722099999999     5.83816298
177  9  2    0.0386     5.9868533     4.877724169999999     4.0968965
178  9  2    0.0326     7.7204837     6.063011339999999     6.29288778
179  9  2    0.0326     7.793669700000001     6.548991979999999     4.508069659999999
180  9  2    0.0326     8.2678455     4.926492659999999     5.04238584
181  10  1    -0.0922     1.3458737000000003     5.607123349999999     9.068879900999999
182  10  1    -0.0805     2.6216439000000005     6.402031729999999     9.24903404
183  10  1    -0.0795     3.77245725     5.491395289999999     8.919724949999999
184  10  1    -0.0795     5.11059588     6.219412999999999     9.076763131
185  10  1    -0.0805     6.1742359     5.2107980199999995     8.72212504
186  10  1    -0.0922     7.5603427     5.7590718249999995     8.82259755
187  10  2    0.0326     1.5533990000000002     4.592845299999999     9.52105742
188  10  2    0.0326     0.5     6.019693009999999     9.654162719999999
189  10  2    0.0326     1.0953664     5.4720764299999995     7.992367699999999
190  10  2    0.0386     2.6598573     6.735518849999999     10.2906895
191  10  2    0.0386     2.6507127     7.239444199999999     8.51676674
192  10  2    0.0386     3.71523819     4.6155528     9.574220969999999
193  10  2    0.0386     3.7128827500000003     5.167861879999999     7.870973299999999
194  10  2    0.0386     5.1772342     7.0645621     8.36075108
195  10  2    0.0386     5.22645607     6.633326149999999     10.0922086
196  10  2    0.0386     6.0863438     4.369722099999999     9.43505948
197  10  2    0.0386     5.9868533     4.877724169999999     7.693792999999999
198  10  2    0.0326     7.7204837     6.063011339999999     9.889784279999999
199  10  2    0.0326     7.793669700000001     6.548991979999999     8.10496616
200  10  2    0.0326     8.2678455     4.926492659999999     8.63928234
201  11  1    -0.0922     1.3458737000000003     5.607123349999999     12.665776400999999
202  11  1    -0.0805     2.6216439000000005     6.402031729999999     12.84593054
203  11  1    -0.0795     3.77245725     5.491395289999999     12.516621449999999
204  11  1    -0.0795     5.11059588     6.219412999999999     12.673659631
205  11  1    -0.0805     6.1742359     5.2107980199999995     12.31902154
206  11  1    -0.0922     7.5603427     5.7590718249999995     12.419494049999999
207  11  2    0.0326     1.5533990000000002     4.592845299999999     13.11795392
208  11  2    0.0326     0.5     6.019693009999999     13.251059219999998
209  11  2    0.0326     1.0953664     5.4720764299999995     11.589264199999999
210  11  2    0.0386     2.6598573     6.735518849999999     13.887585999999999
211  11  2    0.0386     2.6507127     7.239444199999999     12.11366324
212  11  2    0.0386     3.71523819     4.6155528     13.171117469999999
213  11  2    0.0386     3.7128827500000003     5.167861879999999     11.467869799999999
214  11  2    0.0386     5.1772342     7.0645621     11.95764758
215  11  2    0.0386     5.22645607     6.633326149999999     13.689105099999999
216  11  2    0.0386     6.0863438     4.369722099999999     13.03195598
217  11  2    0.0386     5.9868533     4.877724169999999     11.2906895
218  11  2    0.0326     7.7204837     6.063011339999999     13.486680779999999
219  11  2    0.0326     7.793669700000001     6.548991979999999     11.70186266
220  11  2    0.0326     8.2678455     4.926492659999999     12.23617884
221  12  1    -0.0922     1.3458737000000003     5.607123349999999     16.262672901
222  12  1    -0.0805     2.6216439000000005     6.402031729999999     16.442827039999997
223  12  1    -0.0795     3.77245725     5.491395289999999     16.11351795
224  12  1    -0.0795     5.11059588     6.219412999999999     16.270556131
225  12  1    -0.0805     6.1742359     5.2107980199999995     15.91591804
226  12  1    -0.0922     7.5603427     5.7590718249999995     16.01639055
227  12  2    0.0326     1.5533990000000002     4.592845299999999     16.714850419999998
228  12  2    0.0326     0.5     6.019693009999999     16.847955719999998
229  12  2    0.0326     1.0953664     5.4720764299999995     15.186160699999999
230  12  2    0.0386     2.6598573     6.735518849999999     17.4844825
231  12  2    0.0386     2.6507127     7.239444199999999     15.710559739999999
232  12  2    0.0386     3.71523819     4.6155528     16.76801397
233  12  2    0.0386     3.7128827500000003     5.167861879999999     15.064766299999999
234  12  2    0.0386     5.1772342     7.0645621     15.55454408
235  12  2    0.0386     5.22645607     6.633326149999999     17.2860016
236  12  2    0.0386     6.0863438     4.369722099999999     16.62885248
237  12  2    0.0386     5.9868533     4.877724169999999     14.887585999999999
238  12  2    0.0326     7.7204837     6.063011339999999     17.08357728
239  12  2    0.0326     7.793669700000001     6.548991979999999     15.29875916
240  12  2    0.0326     8.2678455     4.926492659999999     15.833075339999999
241  13  1    -0.0922     1.3458737000000003     5.607123349999999     19.859569400999998
242  13  1    -0.0805     2.6216439000000005     6.402031729999999     20.039723539999997
243  13  1    -0.0795     3.77245725     5.491395289999999     19.71041445
244  13  1    -0.0795     5.11059588     6.219412999999999     19.867452631
245  13  1    -0.0805     6.1742359     5.2107980199999995     19.512814539999997
246  13  1    -0.0922     7.5603427     5.7590718249999995     19.61328705
247  13  2    0.0326     1.5533990000000002     4.592845299999999     20.311746919999997
248  13  2    0.0326     0.5     6.019693009999999     20.444852219999998
249  13  2    0.0326     1.0953664     5.4720764299999995     18.7830572
250  13  2    0.0386     2.6598573     6.735518849999999     21.081379
251  13  2    0.0386     2.6507127     7.239444199999999     19.307456239999997
252  13  2    0.0386     3.71523819     4.6155528     20.364910469999998
253  13  2    0.0386     3.7128827500000003     5.167861879999999     18.6616628
254  13  2    0.0386     5.1772342     7.0645621     19.15144058
255  13  2    0.0386     5.22645607     6.633326149999999     20.8828981
256  13  2    0.0386     6.0863438     4.369722099999999     20.22574898
257  13  2    0.0386     5.9868533     4.877724169999999     18.4844825
258  13  2    0.0326     7.7204837     6.063011339999999     20.68047378
259  13  2    0.0326     7.793669700000001     6.548991979999999     18.89565566
260  13  2    0.0326     8.2678455     4.926492659999999     19.42997184
261  14  1    -0.0922     1.3458737000000003     5.607123349999999     23.456465900999998
262  14  1    -0.0805     2.6216439000000005     6.402031729999999     23.636620039999997
263  14  1    -0.0795     3.77245725     5.491395289999999     23.307310949999998
264  14  1    -0.0795     5.11059588     6.219412999999999     23.464349131
265  14  1    -0.0805     6.1742359     5.2107980199999995     23.109711039999997
266  14  1    -0.0922     7.5603427     5.7590718249999995     23.21018355
267  14  2    0.0326     1.5533990000000002     4.592845299999999     23.908643419999997
268  14  2    0.0326     0.5     6.019693009999999     24.041748719999998
269  14  2    0.0326     1.0953664     5.4720764299999995     22.379953699999998
270  14  2    0.0386     2.6598573     6.735518849999999     24.678275499999998
271  14  2    0.0386     2.6507127     7.239444199999999     22.904352739999997
272  14  2    0.0386     3.71523819     4.6155528     23.961806969999998
273  14  2    0.0386     3.7128827500000003     5.167861879999999     22.258559299999998
274  14  2    0.0386     5.1772342     7.0645621     22.74833708
275  14  2    0.0386     5.22645607     6.633326149999999     24.479794599999998
276  14  2    0.0386     6.0863438     4.369722099999999     23.82264548
277  14  2    0.0386     5.9868533     4.877724169999999     22.081379
278  14  2    0.0326     7.7204837     6.063011339999999     24.27737028
279  14  2    0.0326     7.793669700000001     6.548991979999999     22.49255216
280  14  2    0.0326     8.2678455     4.926492659999999     23.02686834
281  15  1    -0.0922     1.3458737000000003     5.607123349999999     27.053362400999998
282  15  1    -0.0805     2.6216439000000005     6.402031729999999     27.233516539999997
283  15  1    -0.0795     3.77245725     5.491395289999999     26.904207449999998
284  15  1    -0.0795     5.11059588     6.219412999999999     27.061245631
285  15  1    -0.0805     6.1742359     5.2107980199999995     26.706607539999997
286  15  1    -0.0922     7.5603427     5.7590718249999995     26.80708005
287  15  2    0.0326     1.5533990000000002     4.592845299999999     27.505539919999997
288  15  2    0.0326     0.5     6.019693009999999     27.638645219999997
289  15  2    0.0326     1.0953664     5.4720764299999995     25.976850199999998
290  15  2    0.0386     2.6598573     6.735518849999999     28.275171999999998
291  15  2    0.0386     2.6507127     7.239444199999999     26.501249239999996
292  15  2    0.0386     3.71523819     4.6155528     27.558703469999998
293  15  2    0.0386     3.7128827500000003     5.167861879999999     25.855455799999998
294  15  2    0.0386     5.1772342     7.0645621     26.34523358
295  15  2    0.0386     5.22645607     6.633326149999999     28.076691099999998
296  15  2    0.0386     6.0863438     4.369722099999999     27.419541979999998
297  15  2    0.0386     5.9868533     4.877724169999999     25.678275499999998
298  15  2    0.0326     7.7204837     6.063011339999999     27.87426678
299  15  2    0.0326     7.793669700000001     6.548991979999999     26.08944866
300  15  2    0.0326     8.2678455     4.926492659999999     26.62376484
301  16  1    -0.0922     1.3458737000000003     9.476845449999999     1.875086901
302  16  1    -0.0805     2.6216439000000005     10.27175383     2.05524104
303  16  1    -0.0795     3.77245725     9.36111739     1.7259319499999999
304  16  1    -0.0795     5.11059588     10.0891351     1.882970131
305  16  1    -0.0805     6.1742359     9.08052012     1.52833204
306  16  1    -0.0922     7.5603427     9.628793925     1.62880455
307  16  2    0.0326     1.5533990000000002     8.4625674     2.3272644199999997
308  16  2    0.0326     0.5     9.88941511     2.46036972
309  16  2    0.0326     1.0953664     9.34179853     0.7985747
310  16  2    0.0386     2.6598573     10.605240949999999     3.0968964999999997
311  16  2    0.0386     2.6507127     11.1091663     1.32297374
312  16  2    0.0386     3.71523819     8.4852749     2.38042797
313  16  2    0.0386     3.7128827500000003     9.037583979999999     0.6771802999999998
314  16  2    0.0386     5.1772342     10.9342842     1.16695808
315  16  2    0.0386     5.22645607     10.503048249999999     2.8984156
316  16  2    0.0386     6.0863438     8.2394442     2.24126648
317  16  2    0.0386     5.9868533     8.74744627     0.5
318  16  2    0.0326     7.7204837     9.93273344     2.69599128
319  16  2    0.0326     7.793669700000001     10.418714079999999     0.9111731599999999
320  16  2    0.0326     8.2678455     8.79621476     1.44548934
321  17  1    -0.0922     1.3458737000000003     9.476845449999999     5.471983400999999
322  17  1    -0.0805     2.6216439000000005     10.27175383     5.65213754
323  17  1    -0.0795     3.77245725     9.36111739     5.322828449999999
324  17  1    -0.0795     5.11059588     10.0891351     5.479866630999999
325  17  1    -0.0805     6.1742359     9.08052012     5.125228539999999
326  17  1    -0.0922     7.5603427     9.628793925     5.22570105
327  17  2    0.0326     1.5533990000000002     8.4625674     5.924160919999999
328  17  2    0.0326     0.5     9.88941511     6.05726622
329  17  2    0.0326     1.0953664     9.34179853     4.395471199999999
330  17  2    0.0386     2.6598573     10.605240949999999     6.693792999999999
331  17  2    0.0386     2.6507127     11.1091663     4.91987024
332  17  2    0.0386     3.71523819     8.4852749     5.977324469999999
333  17  2    0.0386     3.7128827500000003     9.037583979999999     4.2740768
334  17  2    0.0386     5.1772342     10.9342842     4.763854579999999
335  17  2    0.0386     5.22645607     10.503048249999999     6.4953121
336  17  2    0.0386     6.0863438     8.2394442     5.83816298
337  17  2    0.0386     5.9868533     8.74744627     4.0968965
338  17  2    0.0326     7.7204837     9.93273344     6.29288778
339  17  2    0.0326     7.793669700000001     10.418714079999999     4.508069659999999
340  17  2    0.0326     8.2678455     8.79621476     5.04238584
341  18  1    -0.0922     1.3458737000000003     9.476845449999999     9.068879900999999
342  18  1    -0.0805     2.6216439000000005     10.27175383     9.24903404
343  18  1    -0.0795     3.77245725     9.36111739     8.919724949999999
344  18  1    -0.0795     5.11059588     10.0891351     9.076763131
345  18  1    -0.0805     6.1742359     9.08052012     8.72212504
346  18  1    -0.0922     7.5603427     9.628793925     8.82259755
347  18  2    0.0326     1.5533990000000002     8.4625674     9.52105742
348  18  2    0.0326     0.5     9.88941511     9.654162719999999
349  18  2    0.0326     1.0953664     9.34179853     7.992367699999999
350  18  2    0.0386     2.6598573     10.605240949999999     10.2906895
351  18  2    0.0386     2.6507127     11.1091663     8.51676674
352  18  2    0.0386     3.71523819     8.4852749     9.574220969999999
353  18  2    0.0386     3.7128827500000003     9.037583979999999     7.870973299999999
354  18  2    0.0386     5.1772342     10.9342842     8.36075108
355  18  2    0.0386     5.22645607     10.503048249999999     10.0922086
356  18  2    0.0386     6.0863438     8.2394442     9.43505948
357  18  2    0.0386     5.9868533     8.74744627     7.693792999999999
358  18  2    0.0326     7.7204837     9.93273344     9.889784279999999
359  18  2    0.0326     7.793669700000001     10.418714079999999     8.10496616
360  18  2    0.0326     8.2678455     8.79621476     8.63928234
361  19  1    -0.0922     1.3458737000000003     9.476845449999999     12.665776400999999
362  19  1    -0.0805     2.6216439000000005     10.27175383     12.84593054
363  19  1    -0.0795     3.77245725     9.36111739     12.516621449999999
364  19  1    -0.0795     5.11059588     10.0891351     12.673659631
365  19  1    -0.0805     6.1742359     9.08052012     12.31902154
366  19  1    -0.0922     7.5603427     9.628793925     12.419494049999999
367  19  2    0.0326     1.5533990000000002     8.4625674     13.11795392
368  19  2    0.0326     0.5     9.88941511     13.251059219999998
369  19  2    0.0326     1.0953664     9.34179853     11.589264199999999
370  19  2    0.0386     2.6598573     10.605240949999999     13.887585999999999
371  19  2    0.0386     2.6507127     11.1091663     12.11366324
372  19  2    0.0386     3.71523819     8.4852749     13.171117469999999
373  19  2    0.0386     3.7128827500000003     9.037583979999999     11.467869799999999
374  19  2    0.0386     5.1772342     10.9342842     11.95764758
375  19  2    0.0386     5.22645607     10.503048249999999     13.689105099999999
376  19  2    0.0386     6.0863438     8.2394442     13.03195598
377  19  2    0.0386     5.9868533     8.74744627     11.2906895
378  19  2    0.0326     7.7204837     9.93273344     13.486680779999999
379  19  2    0.0326     7.793669700000001     10.418714079999999     11.70186266
380  19  2    0.0326     8.2678455     8.79621476     12.23617884
381  20  1    -0.0922     1.3458737000000003     9.476845449999999     16.262672901
382  20  1    -0.0805     2.6216439000000005     10.27175383     16.442827039999997
383  20  1    -0.0795     3.77245725     9.36111739     16.11351795
384  20  1    -0.0795     5.11059588     10.0891351     16.270556131
385  20  1    -0.0805     6.1742359     9.08052012     15.91591804
386  20  1    -0.0922     7.5603427     9.628793925     16.01639055
387  20  2    0.0326     1.5533990000000002     8.4625674     16.714850419999998
388  20  2    0.0326     0.5     9.88941511     16.847955719999998
389  20  2    0.0326     1.0953664     9.34179853     15.186160699999999
390  20  2    0.0386     2.6598573     10.605240949999999     17.4844825
391  20  2    0.0386     2.6507127     11.1091663     15.710559739999999
392  20  2    0.0386     3.71523819     8.4852749     16.76801397